ITEM: TIMESTEP
90000
ITEM: NUMBER OF ATOMS
13500
ITEM: BOX BOUNDS
0 25
0 25
0 25
ITEM: ATOMS id type mass x y z ix iy iz xs ys zs xu yu zu vx vy vz fx fy fz 
5936 1 1 3.0441 3.15105 4.89994 0 1 1 0.121764 0.126042 0.195998 3.0441 28.1511 29.8999 1.07239 -1.07373 0.714024 5.42097 10.2341 -0.19152 
2324 1 1 7.16907 0.0722293 0.635328 0 0 1 0.286763 0.00288917 0.0254131 7.16907 0.0722293 25.6353 -0.687367 0.258513 -0.734042 7.21123 0.221151 12.7053 
2925 1 1 11.364 6.12471 2.77997 0 0 1 0.45456 0.244989 0.111199 11.364 6.12471 27.78 -0.399531 0.716726 -0.790338 -31.2921 31.5004 -8.78699 
3288 1 1 6.80495 5.05912 0.476716 0 0 1 0.272198 0.202365 0.0190686 6.80495 5.05912 25.4767 0.316855 -0.83339 1.99796 56.4649 -27.3763 85.3725 
3350 1 1 7.17895 1.69621 0.773998 0 1 1 0.287158 0.0678486 0.0309599 7.17895 26.6962 25.774 0.590635 0.264728 0.14639 21.5138 6.58015 -4.18392 
10311 1 1 3.60096 0.531596 0.366408 1 1 0 0.144038 0.0212639 0.0146563 28.601 25.5316 0.366408 0.873063 0.177651 0.502683 -3.29234 7.98032 6.31844 
616 1 1 4.44693 8.81739 0.643698 0 0 0 0.177877 0.352696 0.0257479 4.44693 8.81739 0.643698 0.0799402 -2.2117 0.275685 -7.36808 -18.8275 8.68536 
7613 1 1 2.67311 0.159694 2.88241 1 0 0 0.106924 0.00638776 0.115296 27.6731 0.159694 2.88241 1.35005 0.0922666 -0.70283 5.26033 1.54759 6.56172 
7098 1 1 8.45836 8.66864 2.30096 0 0 0 0.338334 0.346746 0.0920383 8.45836 8.66864 2.30096 -0.78263 0.538779 -0.600486 -2.16075 1.9187 -7.95328 
11466 1 1 0.823889 10.7316 4.65221 1 0 0 0.0329556 0.429262 0.186088 25.8239 10.7316 4.65221 -0.250302 -1.41235 -2.26424 33.7657 -11.6122 60.5144 
7816 1 1 11.6534 2.60548 2.34779 0 0 0 0.466135 0.104219 0.0939114 11.6534 2.60548 2.34779 -0.0237868 0.643309 0.44312 -7.30535 -14.6606 -6.90667 
4184 1 1 11.9302 12.478 5.03544 0 0 0 0.477208 0.499119 0.201417 11.9302 12.478 5.03544 0.610556 0.264821 0.516877 -11.344 -8.13189 -6.99089 
533 1 1 3.85289 2.63654 4.34391 0 0 0 0.154116 0.105462 0.173756 3.85289 2.63654 4.34391 -1.73309 0.163293 -1.12718 -39.9681 -21.038 -0.127552 
1125 1 1 9.39613 7.79836 0.821768 0 0 0 0.375845 0.311934 0.0328707 9.39613 7.79836 0.821768 -0.117125 1.30454 -0.506899 -0.54358 7.53293 -7.41678 
44 1 1 4.05488 1.35999 2.14014 0 0 0 0.162195 0.0543996 0.0856056 4.05488 1.35999 2.14014 0.704672 -0.133334 -2.32674 -24.2098 11.5228 8.24243 
9849 1 1 2.17216 8.74402 1.61889 1 0 1 0.0868865 0.349761 0.0647555 27.1722 8.74402 26.6189 -1.89908 -1.57089 0.443151 15.5156 0.792156 -29.2096 
10993 1 1 4.61633 4.11106 2.24782 1 1 0 0.184653 0.164442 0.0899128 29.6163 29.1111 2.24782 -0.370681 1.3488 2.21428 -3.69964 -2.74714 -8.25557 
3343 1 1 8.95737 5.73016 2.27683 0 0 1 0.358295 0.229206 0.0910733 8.95737 5.73016 27.2768 1.22804 0.451774 -0.995896 6.01576 -15.2408 7.3707 
7804 1 1 6.41723 8.6544 1.03262 0 0 0 0.256689 0.346176 0.0413046 6.41723 8.6544 1.03262 0.609482 -0.166247 0.407305 0.479602 1.95608 14.2051 
1631 1 1 6.89147 3.10075 4.44592 0 0 0 0.275659 0.12403 0.177837 6.89147 3.10075 4.44592 1.32766 0.636164 0.807344 -5.00454 -15.4644 -16.3624 
7598 1 1 1.77251 12.0978 5.48351 1 0 0 0.0709006 0.483912 0.21934 26.7725 12.0978 5.48351 -0.085514 0.31153 0.963303 9.81786 -4.92295 -0.234313 
5161 1 1 8.35001 8.21039 1.21071 0 1 0 0.334 0.328416 0.0484283 8.35001 33.2104 1.21071 -0.375033 -1.72933 -0.760624 0.238558 5.17997 -0.626501 
2874 1 1 2.0922 6.14828 2.94556 0 0 1 0.0836878 0.245931 0.117822 2.0922 6.14828 27.9456 0.815172 -0.697784 -0.47765 28.8076 -20.435 -13.6768 
9496 1 1 -0.0139572 0.404195 0.922707 1 0 1 -0.000558287 0.0161678 0.0369083 24.986 0.404195 25.9227 -0.387255 -0.104897 -0.799743 -2.76781 13.2444 13.2766 
341 1 1 4.23715 5.00282 4.17215 0 0 0 0.169486 0.200113 0.166886 4.23715 5.00282 4.17215 0.502424 -1.18052 1.59116 -3.76041 -7.43162 5.87031 
5995 1 1 9.30586 11.5819 0.805228 0 0 1 0.372234 0.463274 0.0322091 9.30586 11.5819 25.8052 0.498377 -0.255892 1.96765 -10.333 -20.9992 -6.7718 
6173 1 1 5.14529 0.330328 0.705973 0 1 1 0.205812 0.0132131 0.0282389 5.14529 25.3303 25.706 -0.568539 1.40431 1.00848 -30.8154 -12.7877 5.60307 
3935 1 1 10.1261 0.619478 3.29486 0 1 0 0.405044 0.0247791 0.131794 10.1261 25.6195 3.29486 0.342473 0.230711 0.0808162 -4.16128 5.28652 -10.2145 
10815 1 1 1.02923 4.67539 1.55072 1 0 0 0.0411691 0.187016 0.0620288 26.0292 4.67539 1.55072 -1.13362 0.942992 -0.0453973 -9.01933 -4.21118 6.61911 
8741 1 1 0.377641 6.58636 3.66531 1 0 0 0.0151057 0.263455 0.146612 25.3776 6.58636 3.66531 0.653663 -0.627364 -0.460528 -0.823203 -0.0297905 -0.620664 
5957 1 1 7.82544 11.9519 0.826528 0 0 1 0.313018 0.478076 0.0330611 7.82544 11.9519 25.8265 -0.152774 -0.73943 0.6087 7.25266 -15.1504 -0.124418 
3358 1 1 7.19456 10.1884 3.00108 0 0 1 0.287782 0.407534 0.120043 7.19456 10.1884 28.0011 1.37563 -1.02716 0.3381 -18.9528 31.2888 -0.444751 
4162 1 1 5.2615 0.711528 3.83196 0 1 0 0.21046 0.0284611 0.153278 5.2615 25.7115 3.83196 0.156406 -2.79901 -0.640292 16.5135 6.98151 22.6884 
1664 1 1 7.27186 11.0178 1.24337 0 0 1 0.290874 0.440712 0.049735 7.27186 11.0178 26.2434 -0.0532346 -1.19471 1.51566 13.6407 10.2174 5.60584 
889 1 1 5.09016 11.73 6.09235 0 0 0 0.203606 0.469201 0.243694 5.09016 11.73 6.09235 -0.225007 0.873011 1.7856 7.35896 25.8827 13.5261 
3213 1 1 8.0778 6.36186 1.62494 0 0 1 0.323112 0.254474 0.0649977 8.0778 6.36186 26.6249 -1.50337 0.713522 -0.655986 -22.4293 -4.55807 -1.29768 
839 1 1 4.67462 6.00359 4.20682 0 0 0 0.186985 0.240144 0.168273 4.67462 6.00359 4.20682 0.233109 0.258289 -0.489157 15.3479 -27.2382 -17.6565 
3193 1 1 6.2043 2.61712 3.41985 0 0 1 0.248172 0.104685 0.136794 6.2043 2.61712 28.4198 -0.743345 1.35855 -0.342636 21.449 5.94622 4.32672 
8200 1 1 11.6773 6.94231 2.26147 0 0 1 0.467092 0.277692 0.0904587 11.6773 6.94231 27.2615 0.155576 1.31391 0.286376 3.12224 34.2701 -2.56779 
6298 1 1 12.234 2.74994 5.46157 0 1 1 0.489362 0.109997 0.218463 12.234 27.7499 30.4616 -1.30484 -0.4548 0.381636 18.3988 -18.2154 2.83789 
7768 1 1 11.1778 2.37976 1.21784 1 0 0 0.447112 0.0951905 0.0487136 36.1778 2.37976 1.21784 0.85771 -0.680086 -1.07461 -11.8526 1.13511 18.3535 
6928 1 1 6.91067 7.44927 4.14803 0 0 0 0.276427 0.297971 0.165921 6.91067 7.44927 4.14803 -0.0270352 -0.113498 1.3323 -18.3788 -0.512228 -31.9574 
6194 1 1 10.0652 4.96731 0.725343 0 0 1 0.402607 0.198692 0.0290137 10.0652 4.96731 25.7253 1.72701 -0.772175 -1.57412 9.20042 1.94153 -8.12692 
4066 1 1 7.50834 12.2326 6.0117 0 0 0 0.300334 0.489303 0.240468 7.50834 12.2326 6.0117 0.120669 -0.0700859 0.687397 43.3107 25.7264 19.18 
8411 1 1 1.50986 9.18456 0.624106 1 0 0 0.0603945 0.367383 0.0249643 26.5099 9.18456 0.624106 1.97394 0.122147 -0.974096 -6.49757 -0.284376 8.31624 
11535 1 1 9.87793 0.427211 0.673633 0 0 0 0.395117 0.0170884 0.0269453 9.87793 0.427211 0.673633 0.187775 0.124038 -1.24406 21.1122 -35.8713 30.7247 
4488 1 1 8.71109 2.51293 1.85647 0 1 0 0.348443 0.100517 0.0742587 8.71109 27.5129 1.85647 -1.01029 2.70915 0.000112501 11.7991 3.88432 0.264606 
2763 1 1 5.79598 8.12273 0.23562 0 0 1 0.231839 0.324909 0.0094248 5.79598 8.12273 25.2356 -1.72979 0.0635239 -1.15544 -11.8306 -19.0384 -26.3733 
11124 1 1 1.63974 8.72485 2.44973 1 0 0 0.0655898 0.348994 0.0979892 26.6397 8.72485 2.44973 -2.35484 -0.253521 0.305389 -21.6554 -3.19251 14.9375 
2658 1 1 8.35286 9.26297 0.88467 0 0 1 0.334114 0.370519 0.0353868 8.35286 9.26297 25.8847 -1.20431 -0.364925 -0.556054 10.8536 -37.6013 14.1332 
8075 1 1 2.58771 10.0221 3.50935 1 0 0 0.103508 0.400885 0.140374 27.5877 10.0221 3.50935 0.939648 -0.618887 -0.942845 -57.37 -21.4808 18.573 
10133 1 1 4.89058 3.04237 1.93159 1 1 0 0.195623 0.121695 0.0772638 29.8906 28.0424 1.93159 0.409545 1.53681 -0.476892 24.8512 19.4604 -10.677 
8401 1 1 2.5217 4.30781 0.150116 0 0 0 0.100868 0.172313 0.00600464 2.5217 4.30781 0.150116 -0.21154 1.23787 -0.489248 7.58965 45.3191 -3.87291 
7678 1 1 7.17836 1.32134 5.91343 1 0 0 0.287134 0.0528535 0.236537 32.1784 1.32134 5.91343 -1.21371 0.183614 -1.50038 7.22673 -33.7541 -5.17231 
6203 1 1 3.80194 0.236983 2.98272 0 1 1 0.152078 0.00947931 0.119309 3.80194 25.237 27.9827 -0.934384 0.262732 1.79062 16.9946 -18.5606 3.19187 
154 1 1 4.62908 9.79361 0.487602 0 0 0 0.185163 0.391744 0.0195041 4.62908 9.79361 0.487602 -1.79087 -1.34452 -0.379883 13.2534 21.5984 10.4349 
1087 1 1 2.58325 8.0143 4.30877 0 0 0 0.10333 0.320572 0.172351 2.58325 8.0143 4.30877 0.502566 -0.589509 -0.34076 30.9333 11.0151 0.323474 
10068 1 1 10.7183 11.235 1.20298 0 0 1 0.428732 0.449401 0.0481191 10.7183 11.235 26.203 -0.461511 -0.28468 -0.682022 -32.4092 -31.5517 -31.5203 
5964 1 1 11.4421 10.5028 1.66821 0 0 1 0.457683 0.420111 0.0667285 11.4421 10.5028 26.6682 -0.696277 -0.0539727 -0.237605 14.2794 6.32667 6.16285 
894 1 1 7.91422 10.6173 2.28485 0 0 0 0.316569 0.424694 0.0913941 7.91422 10.6173 2.28485 0.50427 -0.475213 -1.11224 0.82326 8.39268 6.5623 
3450 1 1 6.96697 11.9321 5.16828 0 0 0 0.278679 0.477286 0.206731 6.96697 11.9321 5.16828 0.469497 1.74423 0.9185 2.26548 44.0314 -31.8271 
3691 1 1 0.0267705 10.8733 1.40296 0 0 0 0.00107082 0.434931 0.0561184 0.0267705 10.8733 1.40296 -1.76079 0.998065 -0.66454 3.50564 6.90189 11.098 
12123 1 1 9.20331 1.59987 3.26603 0 1 1 0.368132 0.0639947 0.130641 9.20331 26.5999 28.266 -0.724814 0.676187 0.234298 -1.1267 -30.91 2.77716 
13275 1 1 0.924825 11.7349 1.54921 1 1 1 0.036993 0.469396 0.0619685 25.9248 36.7349 26.5492 -0.547052 -1.22178 -0.573369 -4.53202 -14.8452 24.7129 
6947 1 1 2.99499 6.06956 4.05058 1 0 0 0.1198 0.242782 0.162023 27.995 6.06956 4.05058 -0.91098 -0.156998 -1.46483 18.3833 62.1774 -4.07793 
10377 1 1 5.04089 11.2925 1.46527 1 0 0 0.201636 0.4517 0.058611 30.0409 11.2925 1.46527 1.27438 0.396847 0.988569 13.9011 -19.2925 11.8459 
2909 1 1 11.3417 11.7474 4.23604 0 0 1 0.453666 0.469894 0.169442 11.3417 11.7474 29.236 -0.894605 -0.255572 0.134529 -22.0305 5.17093 45.5123 
9420 1 1 7.74097 8.0659 4.02747 1 0 1 0.309639 0.322636 0.161099 32.741 8.0659 29.0275 -0.695205 -0.209612 0.0126597 9.60394 7.93883 -2.53128 
10004 1 1 1.61606 4.88551 -0.0377442 1 0 1 0.0646424 0.19542 -0.00150977 26.6161 4.88551 24.9623 0.00858777 -0.44091 -1.42972 2.42705 7.95923 -5.29087 
7242 1 1 8.32125 2.90706 3.59134 1 0 0 0.33285 0.116283 0.143654 33.3213 2.90706 3.59134 -0.81905 -0.064636 1.34337 42.2637 25.46 12.0418 
2824 1 1 3.56718 6.46162 1.65 0 0 1 0.142687 0.258465 0.066 3.56718 6.46162 26.65 -0.127979 0.283815 -0.945571 -22.4644 10.5278 -20.3504 
4848 1 1 1.21255 12.2654 3.48493 0 0 0 0.0485018 0.490615 0.139397 1.21255 12.2654 3.48493 0.742038 1.53504 0.684727 -23.8964 -4.75167 7.62949 
1021 1 1 6.98786 0.803868 1.50937 0 0 0 0.279514 0.0321547 0.0603748 6.98786 0.803868 1.50937 0.93534 1.97386 0.469188 -5.27746 -7.46814 -9.57587 
3049 1 1 7.15699 7.43308 2.78289 0 0 1 0.28628 0.297323 0.111316 7.15699 7.43308 27.7829 1.2837 1.20798 1.59648 -14.5414 15.1927 22.0695 
9511 1 1 8.09925 1.14414 0.327256 0 0 1 0.32397 0.0457656 0.0130903 8.09925 1.14414 25.3273 0.888199 -0.361311 0.429201 -14.6253 17.2015 -1.32637 
13476 1 1 6.89923 6.15738 3.73943 0 1 1 0.275969 0.246295 0.149577 6.89923 31.1574 28.7394 0.322688 -1.04011 -0.648391 2.85609 -4.97692 1.89773 
6796 1 1 12.3693 9.02715 2.53363 0 0 0 0.494771 0.361086 0.101345 12.3693 9.02715 2.53363 -0.844971 1.54889 0.09747 -18.2063 -7.53876 3.81986 
6879 1 1 10.6388 2.96594 3.83986 0 0 0 0.425553 0.118638 0.153594 10.6388 2.96594 3.83986 -0.767227 -1.64464 0.613839 -12.1899 -17.9965 2.40065 
13303 1 1 10.3349 6.73029 3.36916 0 0 1 0.413394 0.269212 0.134766 10.3349 6.73029 28.3692 0.988784 -0.818021 -1.30647 -1.2613 -1.64747 -15.9394 
2946 1 1 5.54382 5.76032 2.59301 0 0 1 0.221753 0.230413 0.103721 5.54382 5.76032 27.593 1.0528 -0.230748 0.934706 33.7396 7.43433 -4.98792 
9731 1 1 10.8559 5.36259 2.20172 0 0 1 0.434237 0.214503 0.0880687 10.8559 5.36259 27.2017 2.3069 0.466657 -1.51327 -1.37833 3.11383 -0.813591 
3631 1 1 0.4047 4.05043 2.2567 0 0 0 0.016188 0.162017 0.0902679 0.4047 4.05043 2.2567 -0.547753 -1.73169 1.62513 33.817 10.6584 4.74582 
3609 1 1 3.19989 11.9953 3.70674 0 0 0 0.127995 0.479813 0.14827 3.19989 11.9953 3.70674 0.914408 -0.405219 0.675565 3.24524 -12.3049 2.3468 
1113 1 1 1.00175 5.97559 4.6228 0 0 0 0.0400699 0.239023 0.184912 1.00175 5.97559 4.6228 1.7908 0.123491 -0.629145 20.2366 46.2208 -37.6113 
6598 1 1 11.4165 10.207 4.07486 0 1 1 0.456659 0.408279 0.162994 11.4165 35.207 29.0749 -0.563285 0.0238397 1.07685 -22.9135 16.8255 35.3792 
10824 1 1 2.49833 0.554902 4.85519 1 0 0 0.099933 0.0221961 0.194208 27.4983 0.554902 4.85519 -0.0840679 -0.743532 -0.386928 -26.635 -17.3485 -20.7659 
6416 1 1 0.51957 4.81599 0.601624 0 1 1 0.0207828 0.19264 0.024065 0.51957 29.816 25.6016 0.498931 2.01601 -1.79209 -1.96462 2.70328 -3.47739 
6781 1 1 12.0843 8.59531 3.4276 0 0 0 0.483372 0.343812 0.137104 12.0843 8.59531 3.4276 0.775842 -0.3211 -0.274442 10.4034 -29.0535 24.3845 
11875 1 1 10.6441 12.4218 4.93335 0 0 0 0.425765 0.496873 0.197334 10.6441 12.4218 4.93335 1.17198 0.136728 -0.376297 17.7034 -9.31462 13.4792 
7589 1 1 -0.0486473 9.63886 2.25201 1 0 0 -0.00194589 0.385555 0.0900803 24.9514 9.63886 2.25201 -2.09353 0.139237 -0.836748 34.05 -29.1957 38.755 
236 1 1 3.32122 0.566169 2.07255 0 0 0 0.132849 0.0226468 0.0829018 3.32122 0.566169 2.07255 0.172789 -1.61053 0.609019 -1.79195 6.06385 -10.0956 
3972 1 1 1.79317 1.80545 0.36595 0 0 0 0.0717267 0.072218 0.014638 1.79317 1.80545 0.36595 -0.827726 0.209131 -0.0219965 -18.5223 -29.47 -2.61008 
12633 1 1 10.9768 9.94457 2.83813 1 0 1 0.439073 0.397783 0.113525 35.9768 9.94457 27.8381 1.46356 1.07147 0.227771 23.4654 22.6908 -2.36941 
3258 1 1 10.4184 0.399604 4.3265 0 0 1 0.416738 0.0159842 0.17306 10.4184 0.399604 29.3265 -0.0855264 0.320135 0.558561 -10.3266 9.99772 1.70821 
7872 1 1 10.4627 2.82421 4.9728 1 0 0 0.418509 0.112968 0.198912 35.4627 2.82421 4.9728 -0.221476 -1.9319 0.373795 23.162 8.27485 -36.5183 
10650 1 1 11.9101 0.309996 2.06083 0 0 0 0.476403 0.0123998 0.0824332 11.9101 0.309996 2.06083 0.524346 -0.409471 -0.489081 -36.7482 -7.95129 -11.932 
7214 1 1 0.938608 4.91479 4.282 0 0 0 0.0375443 0.196592 0.17128 0.938608 4.91479 4.282 -0.0965391 1.18012 -1.01427 -0.961427 7.0963 -0.68857 
3685 1 1 4.57073 10.318 4.28269 0 0 0 0.182829 0.41272 0.171308 4.57073 10.318 4.28269 1.60425 0.904446 -1.86611 7.70129 -16.1573 18.8549 
1334 1 1 7.35581 5.1055 3.49112 0 0 0 0.294232 0.20422 0.139645 7.35581 5.1055 3.49112 -0.193293 2.45775 -0.835901 -8.32231 3.16887 -6.69216 
13184 1 1 6.04618 0.702325 0.584518 1 1 1 0.241847 0.028093 0.0233807 31.0462 25.7023 25.5845 0.632364 1.03071 0.245121 40.1947 8.03686 -13.1214 
9143 1 1 6.16688 5.07072 1.42468 1 0 1 0.246675 0.202829 0.0569872 31.1669 5.07072 26.4247 -0.428612 0.495441 -0.443399 -20.5001 24.2748 -7.73894 
3299 1 1 10.7207 4.14925 5.28681 0 0 1 0.428826 0.16597 0.211472 10.7207 4.14925 30.2868 -0.663547 0.0100803 0.392987 9.43814 47.0957 -24.34 
7184 1 1 11.1656 6.03854 3.88269 1 0 0 0.446622 0.241542 0.155308 36.1656 6.03854 3.88269 -1.64153 0.0818238 0.0987996 -5.8492 3.86518 -3.10747 
7060 1 1 4.09714 6.69093 4.63019 1 0 0 0.163885 0.267637 0.185207 29.0971 6.69093 4.63019 -0.608632 -0.788941 0.61138 -64.9507 -1.35702 24.194 
7862 1 1 0.244492 3.55204 5.87835 1 0 0 0.00977968 0.142081 0.235134 25.2445 3.55204 5.87835 -0.524684 0.19764 0.844296 9.87397 -3.35781 -24.6011 
9742 1 1 8.77591 9.6854 1.88252 1 0 1 0.351037 0.387416 0.0753006 33.7759 9.6854 26.8825 1.51962 0.0945974 0.429162 26.7946 0.515942 7.7946 
4438 1 1 11.9857 0.459428 0.729278 0 1 0 0.479428 0.0183771 0.0291711 11.9857 25.4594 0.729278 0.391733 0.735629 1.79284 -4.08124 -5.64594 3.65533 
2778 1 1 5.47167 1.94787 3.17674 0 0 1 0.218867 0.0779147 0.12707 5.47167 1.94787 28.1767 -2.03927 -1.22064 -0.307954 -13.3006 -8.92355 -6.71534 
303 1 1 11.6522 6.0893 1.69856 0 0 0 0.466087 0.243572 0.0679424 11.6522 6.0893 1.69856 -1.44396 0.640281 0.796255 18.3725 -33.0718 20.1048 
10057 1 1 12.4155 6.01247 5.97765 0 0 1 0.496619 0.240499 0.239106 12.4155 6.01247 30.9776 -0.241143 -0.280074 0.0111759 -6.04948 4.62192 3.0167 
3706 1 1 6.31545 9.70249 0.985498 0 0 0 0.252618 0.388099 0.0394199 6.31545 9.70249 0.985498 1.24342 1.23072 1.46597 3.74961 5.42986 31.8 
13094 1 1 2.10799 12.3613 0.166434 1 0 1 0.0843197 0.494453 0.00665737 27.108 12.3613 25.1664 -0.161845 1.37156 1.45983 -5.3781 7.1947 -5.09422 
6561 1 1 3.78568 2.62978 0.883071 0 0 1 0.151427 0.105191 0.0353229 3.78568 2.62978 25.8831 -0.200626 -0.248868 -0.722737 16.6971 11.7899 -12.4138 
5576 1 1 0.739541 12.1033 5.28417 0 0 1 0.0295817 0.484134 0.211367 0.739541 12.1033 30.2842 0.355122 -0.829136 -0.60272 -8.44517 -13.3773 -11.0404 
1932 1 1 0.69911 0.176774 5.46691 0 0 0 0.0279644 0.00707095 0.218676 0.69911 0.176774 5.46691 -0.100467 0.578455 0.152501 13.2655 -14.4655 -2.03529 
5357 1 1 12.4508 0.10125 2.90205 0 1 1 0.49803 0.00404999 0.116082 12.4508 25.1012 27.9021 0.45285 -0.157119 0.296215 9.76325 2.32541 8.57492 
9172 1 1 8.50029 3.55566 0.329546 1 0 1 0.340012 0.142226 0.0131819 33.5003 3.55566 25.3295 1.33122 -0.282733 0.265333 6.09336 16.1472 -7.07302 
322 1 1 4.56688 5.08199 3.16006 0 0 0 0.182675 0.20328 0.126402 4.56688 5.08199 3.16006 -0.00351183 -1.04527 -0.0341335 5.71589 -8.09368 1.2855 
148 1 1 7.54228 4.07527 0.755597 0 0 0 0.301691 0.163011 0.0302239 7.54228 4.07527 0.755597 -0.154515 0.712449 -0.79783 -13.3683 -42.631 -28.9033 
9964 1 1 9.20932 0.496186 2.78079 0 0 1 0.368373 0.0198474 0.111232 9.20932 0.496186 27.7808 1.64756 0.830327 1.09971 -7.5821 2.30079 -2.7804 
2481 1 1 5.90337 11.7506 4.16166 0 0 1 0.236135 0.470024 0.166466 5.90337 11.7506 29.1617 -0.217153 -0.0535484 -0.0884415 11.8726 5.31426 -1.02061 
7140 1 1 3.5669 7.88253 0.815865 1 0 0 0.142676 0.315301 0.0326346 28.5669 7.88253 0.815865 0.788774 -1.25313 1.02722 -8.23143 25.0351 -17.7736 
6 1 1 11.603 4.5479 1.81379 0 0 0 0.464121 0.181916 0.0725514 11.603 4.5479 1.81379 1.46432 -1.26815 1.14883 -12.0002 -0.749419 2.71273 
11974 1 1 1.1793 12.238 0.717971 1 0 1 0.047172 0.489522 0.0287189 26.1793 12.238 25.718 0.613863 0.491689 0.0499283 0.986943 9.08798 -16.0123 
7549 1 1 6.77249 4.76786 2.16088 0 0 0 0.2709 0.190714 0.0864354 6.77249 4.76786 2.16088 -0.826145 1.20845 -0.546698 3.40814 -14.9559 31.7701 
4093 1 1 6.54362 0.46866 5.69111 0 1 0 0.261745 0.0187464 0.227644 6.54362 25.4687 5.69111 0.258997 -0.21356 -0.495489 7.48229 -9.41289 -10.7342 
7319 1 1 1.18502 4.81218 2.74332 1 0 0 0.0474008 0.192487 0.109733 26.185 4.81218 2.74332 -1.39809 0.901175 -0.706926 -0.97457 -9.41826 23.2775 
4022 1 1 6.67579 8.49904 3.81866 0 1 0 0.267032 0.339962 0.152746 6.67579 33.499 3.81866 2.07723 -0.494437 -1.52219 35.8512 -1.95522 1.83444 
115 1 1 3.67464 11.8863 0.455764 0 0 0 0.146985 0.475452 0.0182306 3.67464 11.8863 0.455764 -2.68679 -0.445556 1.69498 1.41775 -2.56461 -9.75854 
3377 1 1 0.211725 2.11532 1.257 0 0 0 0.00846901 0.0846127 0.0502798 0.211725 2.11532 1.257 -0.761912 0.49003 1.11598 -68.1302 64.3541 31.0944 
9283 1 1 3.7917 8.84646 2.8907 1 0 1 0.151668 0.353858 0.115628 28.7917 8.84646 27.8907 -1.25822 0.51507 -1.44714 -19.9625 2.2477 0.130082 
888 1 1 4.54197 6.28253 0.645068 0 0 0 0.181679 0.251301 0.0258027 4.54197 6.28253 0.645068 0.475764 0.706217 0.12301 -2.5907 -7.07428 -8.72475 
12493 1 1 5.58144 9.77799 6.09799 0 0 0 0.223258 0.391119 0.243919 5.58144 9.77799 6.09799 -2.10605 -0.51017 1.11805 -3.56386 -10.5897 -1.27539 
7806 1 1 10.6179 10.7056 3.41772 0 0 0 0.424718 0.428225 0.136709 10.6179 10.7056 3.41772 -0.804144 1.69653 0.550401 42.6436 11.0164 -7.71 
5367 1 1 10.3655 1.485 1.39804 0 1 0 0.414618 0.0594001 0.0559218 10.3655 26.485 1.39804 -0.21737 -0.358754 0.505709 -7.66731 9.56753 8.22698 
6117 1 1 7.46027 8.91046 1.68682 0 0 1 0.298411 0.356418 0.067473 7.46027 8.91046 26.6868 -0.170872 0.0447652 -0.939394 27.2872 -37.8628 -41.2741 
9790 1 1 6.87637 8.21264 0.232522 1 0 1 0.275055 0.328506 0.0093009 31.8764 8.21264 25.2325 1.12844 1.65174 -1.36751 17.5759 7.88264 -4.20756 
4946 1 1 10.8728 -0.0250137 5.19092 0 1 0 0.434912 -0.00100055 0.207637 10.8728 24.975 5.19092 0.0301796 -0.832443 -0.526196 -19.4305 54.5549 -42.7203 
1599 1 1 2.4277 9.45429 4.49905 0 0 0 0.0971078 0.378172 0.179962 2.4277 9.45429 4.49905 0.38085 0.653426 1.804 -19.4222 0.0751526 1.45097 
886 1 1 10.5218 2.72595 2.15857 0 0 0 0.420874 0.109038 0.0863427 10.5218 2.72595 2.15857 0.836013 0.456949 -1.13198 10.0403 -0.170548 9.63458 
2655 1 1 5.06998 2.98144 0.163792 0 0 1 0.202799 0.119258 0.00655167 5.06998 2.98144 25.1638 0.252673 -4.12566 0.26259 -40.4438 41.6339 29.5376 
4545 1 1 9.95998 0.709702 5.2344 0 0 0 0.398399 0.0283881 0.209376 9.95998 0.709702 5.2344 0.608693 -0.210131 -0.762247 -0.0586668 -16.5373 -3.65232 
3327 1 1 6.50627 11.7218 3.06898 0 0 1 0.260251 0.46887 0.122759 6.50627 11.7218 28.069 -1.59282 -1.42694 0.0216889 -0.0909617 -20.2452 12.6222 
10150 1 1 10.5427 4.49689 1.58107 0 0 0 0.421708 0.179875 0.0632426 10.5427 4.49689 1.58107 -1.19109 0.981258 -0.352261 -10.9916 15.4196 9.34839 
6083 1 1 12.4087 10.8568 2.93539 0 0 1 0.496349 0.434273 0.117416 12.4087 10.8568 27.9354 1.13207 -0.84407 0.584219 3.71116 14.3462 -3.36314 
5416 1 1 0.956157 9.49017 2.60284 0 0 0 0.0382463 0.379607 0.104114 0.956157 9.49017 2.60284 -1.33728 0.937729 -1.41513 -2.1441 14.106 10.2793 
2500 1 1 11.3115 6.35771 0.813643 0 0 1 0.452461 0.254308 0.0325457 11.3115 6.35771 25.8136 -0.560794 -0.130006 0.45196 -32.4722 4.86846 -17.8911 
8171 1 1 10.8287 1.27647 4.9335 0 0 0 0.433148 0.0510587 0.19734 10.8287 1.27647 4.9335 0.968436 0.864021 -1.67282 2.50845 -21.8401 3.66232 
3077 1 1 7.28463 9.30423 0.675068 0 0 1 0.291385 0.372169 0.0270027 7.28463 9.30423 25.6751 0.148776 1.08694 1.02391 -11.5261 -3.69975 21.2219 
9885 1 1 5.40232 8.30859 1.11999 1 0 1 0.216093 0.332343 0.0447997 30.4023 8.30859 26.12 -0.726606 -0.478679 0.459943 -8.58658 21.4959 8.32001 
7165 1 1 -0.0155053 12.0873 1.21228 1 0 0 -0.000620211 0.483493 0.0484912 24.9845 12.0873 1.21228 -0.488372 -0.269511 1.45375 25.2047 -60.6139 -6.97063 
8539 1 1 10.9701 5.39409 1.14073 0 0 0 0.438805 0.215764 0.045629 10.9701 5.39409 1.14073 -1.44754 -0.840367 -1.49324 -2.5623 28.7693 11.4388 
13049 1 1 2.02849 11.3838 2.80072 1 1 1 0.0811397 0.455353 0.112029 27.0285 36.3838 27.8007 0.444173 -0.686807 -0.861605 15.1577 -55.5929 -38.4897 
3768 1 1 0.818392 2.03926 2.84944 0 1 0 0.0327357 0.0815704 0.113977 0.818392 27.0393 2.84944 1.63767 -2.14765 -0.550151 -16.7183 5.53922 13.3171 
885 1 1 5.70262 8.65477 3.72817 0 0 0 0.228105 0.346191 0.149127 5.70262 8.65477 3.72817 -1.40664 0.0259397 -0.573766 -4.50719 -10.5364 -20.4095 
8336 1 1 9.58879 3.90931 5.50524 0 0 0 0.383552 0.156372 0.220209 9.58879 3.90931 5.50524 0.965154 0.530738 0.496799 -1.66416 10.2465 -4.75352 
1965 1 1 11.1724 9.34997 4.74103 0 0 1 0.446898 0.373999 0.189641 11.1724 9.34997 29.741 -0.11615 -0.330956 1.17061 14.0423 -2.06189 -2.25003 
12692 1 1 4.55745 5.26335 0.204438 1 1 1 0.182298 0.210534 0.00817751 29.5574 30.2634 25.2044 -0.355194 -0.234106 -0.322034 -18.2445 -29.1825 3.33138 
2532 1 1 6.47657 6.67413 2.91566 0 0 1 0.259063 0.266965 0.116627 6.47657 6.67413 27.9157 -0.488295 1.52341 0.149111 -13.3572 5.24073 4.40605 
2029 1 1 2.60986 5.21593 4.20507 0 0 1 0.104395 0.208637 0.168203 2.60986 5.21593 29.2051 0.110461 -0.23289 -1.64287 19.0312 -46.4767 -11.7902 
6383 1 1 10.2542 5.36204 4.38858 0 1 1 0.410167 0.214482 0.175543 10.2542 30.362 29.3886 -0.482174 0.410953 0.0587315 -28.5562 24.1554 33.2172 
2224 1 1 1.12261 10.5152 2.07483 1 0 1 0.0449042 0.420608 0.0829933 26.1226 10.5152 27.0748 -0.480389 2.94772 -0.233898 -20.0217 23.9463 2.26332 
5842 1 1 2.0058 10.8919 5.2395 0 0 0 0.080232 0.435675 0.20958 2.0058 10.8919 5.2395 -0.76903 0.45202 -0.731646 -26.8221 44.5354 12.2016 
7465 1 1 7.39369 7.53399 4.99319 0 0 0 0.295748 0.30136 0.199727 7.39369 7.53399 4.99319 0.0382863 -0.824169 -0.575637 7.13386 -2.65591 48.7968 
3668 1 1 8.68299 7.19548 1.21771 0 0 0 0.34732 0.287819 0.0487085 8.68299 7.19548 1.21771 0.804541 1.38457 0.752187 -9.19741 -13.2908 26.9244 
6524 1 1 4.87407 5.19598 2.10568 0 1 1 0.194963 0.207839 0.084227 4.87407 30.196 27.1057 -0.0591456 -1.56283 0.587293 -8.87552 -23.7919 -11.5587 
6716 1 1 8.98254 3.11807 4.73054 0 1 1 0.359301 0.124723 0.189221 8.98254 28.1181 29.7305 -0.379309 1.3238 -0.586644 13.0536 18.0292 -13.242 
2349 1 1 8.17917 7.10101 4.51114 0 0 1 0.327167 0.28404 0.180445 8.17917 7.10101 29.5111 -0.290515 -1.72676 0.38448 19.1081 4.55035 11.5051 
2815 1 1 6.21709 1.39804 3.69354 0 0 1 0.248684 0.0559214 0.147742 6.21709 1.39804 28.6935 -0.547894 0.775133 0.172957 -7.7544 7.16253 7.60174 
6309 1 1 9.24135 7.87896 1.84058 0 0 1 0.369654 0.315158 0.0736233 9.24135 7.87896 26.8406 -0.433944 -0.958741 0.609984 -13.7915 -6.06866 27.3303 
4095 1 1 7.0959 3.69776 5.21569 0 0 0 0.283836 0.14791 0.208628 7.0959 3.69776 5.21569 1.12825 0.892154 -1.18443 -4.29328 24.7052 13.687 
5409 1 1 2.43829 5.11909 3.14819 0 0 1 0.0975318 0.204764 0.125928 2.43829 5.11909 28.1482 1.35497 -0.590984 2.01949 7.99325 8.6586 -17.0136 
1962 1 1 7.86997 5.55463 2.3589 0 0 1 0.314799 0.222185 0.0943559 7.86997 5.55463 27.3589 0.883501 0.381042 -1.04794 -1.6739 -22.0695 -8.24364 
1149 1 1 1.85209 8.12486 0.689711 0 0 0 0.0740837 0.324995 0.0275885 1.85209 8.12486 0.689711 1.04369 0.151431 0.35138 -0.268343 15.9875 17.672 
240 1 1 2.06651 2.01759 1.33709 0 0 0 0.0826603 0.0807037 0.0534838 2.06651 2.01759 1.33709 0.997065 -0.338788 0.110544 -17.1291 -8.6425 12.3487 
4306 1 1 4.96963 6.98419 4.39564 0 0 0 0.198785 0.279367 0.175826 4.96963 6.98419 4.39564 -0.180985 -1.11248 -0.997795 64.6517 21.6433 -3.09525 
1461 1 1 0.557367 4.44924 5.15673 0 0 0 0.0222947 0.17797 0.206269 0.557367 4.44924 5.15673 0.447328 1.14486 1.03997 -10.028 -6.93901 -1.67175 
2412 1 1 0.63861 5.43054 2.19373 0 0 1 0.0255444 0.217221 0.087749 0.63861 5.43054 27.1937 0.854434 -0.849746 -1.53373 -21.2748 23.5027 -16.1775 
3331 1 1 11.324 9.00362 2.93257 -1 0 1 0.452958 0.360145 0.117303 -13.676 9.00362 27.9326 -1.56239 -1.4711 -0.775297 15.3207 -9.99384 -6.08914 
10145 1 1 10.5245 10.2738 4.6184 0 0 0 0.42098 0.410952 0.184736 10.5245 10.2738 4.6184 0.13537 -0.0265685 -0.256784 14.2412 9.64764 9.51794 
3740 1 1 3.0008 8.09375 3.03044 0 0 0 0.120032 0.32375 0.121218 3.0008 8.09375 3.03044 -0.308378 -1.70179 -0.875042 -8.14722 6.79826 5.27675 
7525 1 1 3.48389 4.05966 1.47624 0 0 0 0.139355 0.162386 0.0590495 3.48389 4.05966 1.47624 -0.360989 0.610119 0.314976 -4.51616 8.05852 24.3724 
9861 1 1 9.66117 7.31014 2.67425 0 0 1 0.386447 0.292406 0.10697 9.66117 7.31014 27.6743 0.979551 -1.43979 -1.62701 -9.02797 -10.4285 7.67397 
3836 1 1 7.07283 11.9769 4.052 0 0 0 0.282913 0.479075 0.16208 7.07283 11.9769 4.052 -1.28176 -0.501324 0.429876 2.5616 -13.8772 7.1131 
6848 1 1 7.12644 2.13364 3.84783 0 0 0 0.285058 0.0853457 0.153913 7.12644 2.13364 3.84783 1.47091 0.491533 -0.836523 -1.70352 -37.3131 6.7059 
4642 1 1 5.30092 12.2766 3.34632 0 0 0 0.212037 0.491064 0.133853 5.30092 12.2766 3.34632 0.132311 -0.751529 -0.905426 -5.68647 -0.396607 5.60534 
3563 1 1 7.66621 0.245491 5.49968 0 1 0 0.306648 0.00981965 0.219987 7.66621 25.2455 5.49968 0.678452 0.315068 -0.352442 -7.53132 -22.6419 -12.3846 
761 1 1 0.0106096 3.16449 2.66293 0 0 0 0.000424384 0.12658 0.106517 0.0106096 3.16449 2.66293 -0.397727 -0.459084 0.716411 -0.626109 -11.4414 12.649 
10798 1 1 9.15686 0.546374 1.60561 1 1 0 0.366274 0.021855 0.0642243 34.1569 25.5464 1.60561 -0.541106 -0.274545 -0.564325 6.88555 -9.67427 0.554236 
3593 1 1 5.55935 4.20713 1.79344 0 1 0 0.222374 0.168285 0.0717375 5.55935 29.2071 1.79344 1.28552 -1.31028 -0.461682 11.6944 6.58659 -3.46585 
11859 1 1 9.36141 5.76456 4.93846 0 0 0 0.374456 0.230582 0.197538 9.36141 5.76456 4.93846 -0.955858 -0.673427 1.71184 -9.57745 16.1332 -3.67477 
4030 1 1 11.7603 8.07554 5.73633 0 1 0 0.470411 0.323022 0.229453 11.7603 33.0755 5.73633 0.869758 -1.40378 -0.0585487 -25.6602 -1.06516 -15.8216 
13274 1 1 2.88413 3.99901 5.92909 1 1 1 0.115365 0.159961 0.237164 27.8841 28.999 30.9291 1.14233 0.634235 -0.039613 55.5416 -51.1424 7.41415 
11746 1 1 9.83941 12.3286 1.21985 0 0 0 0.393576 0.493145 0.0487942 9.83941 12.3286 1.21985 -0.608938 -0.180958 0.891503 -6.54219 43.4334 1.42802 
3474 1 1 10.0256 8.28427 2.4837 0 0 0 0.401026 0.331371 0.0993481 10.0256 8.28427 2.4837 -0.178345 -1.16262 -0.372464 14.0419 -1.53261 -20.0107 
504 1 1 3.04714 2.00555 1.86262 0 0 0 0.121886 0.080222 0.0745049 3.04714 2.00555 1.86262 -0.335718 0.935341 3.03773 -1.27153 -0.886423 4.4417 
13117 1 1 2.65686 10.7748 1.06552 1 0 1 0.106274 0.43099 0.0426208 27.6569 10.7748 26.0655 -0.484306 -0.0631394 -0.139738 -22.5576 24.8576 -16.4615 
12982 1 1 9.81187 3.73334 1.38373 0 1 1 0.392475 0.149334 0.055349 9.81187 28.7333 26.3837 -0.307033 0.314939 -0.898429 21.709 -16.7204 -16.2421 
547 1 1 12.1303 3.00909 0.581303 0 0 0 0.485211 0.120364 0.0232521 12.1303 3.00909 0.581303 2.09743 0.0814286 -0.612932 4.70042 -21.5685 -5.37566 
6919 1 1 11.9712 5.43966 0.569358 0 0 0 0.478846 0.217586 0.0227743 11.9712 5.43966 0.569358 -0.519705 -0.711831 -0.14885 -38.7478 -0.919981 3.55207 
9659 1 1 8.02956 1.24974 4.20797 1 0 1 0.321183 0.0499898 0.168319 33.0296 1.24974 29.208 0.0296011 -0.0516145 1.02285 3.6624 8.76847 -4.34721 
11050 1 1 5.90917 12.2776 2.46626 0 0 0 0.236367 0.491103 0.0986503 5.90917 12.2776 2.46626 -0.793042 -0.749837 0.282078 -17.3565 -25.2896 2.62974 
9641 1 1 8.68851 12.0636 4.1775 1 0 1 0.34754 0.482545 0.1671 33.6885 12.0636 29.1775 -1.24328 0.351304 -1.06169 -6.30294 5.21872 -6.69655 
7944 1 1 7.66667 0.716606 2.30399 0 0 0 0.306667 0.0286642 0.0921596 7.66667 0.716606 2.30399 0.620896 -0.284155 2.08392 2.15617 17.0879 -11.811 
7915 1 1 7.85641 3.01062 0.917747 0 0 0 0.314256 0.120425 0.0367099 7.85641 3.01062 0.917747 0.167593 0.400544 1.6904 -13.4667 5.35414 13.5154 
4972 1 1 12.4989 5.25534 5.25612 0 0 0 0.499957 0.210213 0.210245 12.4989 5.25534 5.25612 0.763655 -0.395993 0.635284 3.19194 16.7205 -6.90636 