ITEM: TIMESTEP
40000
ITEM: NUMBER OF ATOMS
13500
ITEM: BOX BOUNDS
0 25
0 25
0 25
ITEM: ATOMS id type mass x y z ix iy iz xs ys zs xu yu zu vx vy vz fx fy fz 
3200 1 1 11.9286 4.1798 0.956414 0 0 1 0.477143 0.167192 0.0382566 11.9286 4.1798 25.9564 0.852048 0.869103 -1.27058 -5.58128 -27.5183 -15.3629 
85 1 1 11.3885 1.31576 3.366 0 0 0 0.455539 0.0526306 0.13464 11.3885 1.31576 3.366 -0.172109 1.21738 -1.92796 2.44361 19.4998 9.46558 
366 1 1 11.6472 3.98606 5.05221 0 0 0 0.465888 0.159442 0.202088 11.6472 3.98606 5.05221 -1.26717 1.37203 -0.977986 -26.7379 -17.5387 7.62091 
523 1 1 5.0867 0.679142 0.178412 0 0 0 0.203468 0.0271657 0.0071365 5.0867 0.679142 0.178412 1.5262 -0.376773 0.626973 -2.3692 -5.56393 -0.114789 
3841 1 1 3.96837 11.2187 1.3896 0 0 0 0.158735 0.44875 0.055584 3.96837 11.2187 1.3896 0.311409 -0.0754685 0.00628522 12.4328 19.895 5.82744 
10113 1 1 11.309 11.8734 0.311797 0 0 1 0.45236 0.474934 0.0124719 11.309 11.8734 25.3118 1.40351 1.58494 1.98629 -17.7496 -2.47557 22.0343 
3624 1 1 6.12891 8.17263 3.35893 0 0 0 0.245156 0.326905 0.134357 6.12891 8.17263 3.35893 -0.760227 0.0888853 0.822496 17.9036 -14.5801 3.91499 
6869 1 1 3.77643 8.34518 3.51938 1 0 0 0.151057 0.333807 0.140775 28.7764 8.34518 3.51938 0.0495995 1.24203 -0.070526 -8.84819 6.81044 -15.9144 
4119 1 1 12.2742 9.92906 5.70432 0 0 0 0.490969 0.397163 0.228173 12.2742 9.92906 5.70432 0.867354 0.0823573 -0.636827 -27.6838 -12.3594 -33.1255 
3478 1 1 11.9762 12.2364 1.10401 0 0 0 0.479048 0.489456 0.0441605 11.9762 12.2364 1.10401 0.516651 -0.206666 -0.349982 -0.890938 19.7703 1.45129 
1233 1 1 11.1701 2.68442 -4.68191e-06 0 0 0 0.446804 0.107377 -1.87276e-07 11.1701 2.68442 -4.68191e-06 0.660909 -0.40259 -0.709478 3.98127 9.94181 -4.49477 
3424 1 1 4.29862 9.18812 1.05341 0 0 0 0.171945 0.367525 0.0421363 4.29862 9.18812 1.05341 1.6245 -2.17409 -0.0200839 -20.2432 -4.82376 3.58215 
3261 1 1 9.05784 9.8356 0.430306 0 0 1 0.362314 0.393424 0.0172122 9.05784 9.8356 25.4303 1.92392 -0.793738 -1.7227 -6.73704 2.99776 -21.1829 
9771 1 1 8.88814 7.82602 0.256175 0 0 1 0.355526 0.313041 0.010247 8.88814 7.82602 25.2562 0.0271411 -0.876848 0.53677 45.248 -23.5543 1.06099 
3644 1 1 11.3668 6.58112 2.78118 0 0 0 0.454673 0.263245 0.111247 11.3668 6.58112 2.78118 -0.0756092 1.10861 0.203294 -5.88007 3.89854 -7.76442 
3608 1 1 7.38674 8.46028 2.14257 0 0 0 0.29547 0.338411 0.0857027 7.38674 8.46028 2.14257 0.922381 -0.0278061 1.6002 -1.97718 6.33666 -1.93165 
3013 1 1 2.69704 8.45429 1.19245 0 0 1 0.107881 0.338172 0.0476979 2.69704 8.45429 26.1924 1.51181 0.752458 0.118672 -0.800702 -3.41511 -0.518371 
2595 1 1 8.68122 0.305606 2.85931 0 0 1 0.347249 0.0122242 0.114373 8.68122 0.305606 27.8593 -1.13592 0.765684 0.110158 -5.64422 31.6013 -10.9195 
3252 1 1 6.44396 9.04326 1.81281 0 0 1 0.257759 0.36173 0.0725126 6.44396 9.04326 26.8128 -1.50988 0.743138 0.812658 5.79587 12.5633 -1.83501 
368 1 1 11.4251 5.53763 4.24169 0 0 0 0.457003 0.221505 0.169667 11.4251 5.53763 4.24169 -1.3088 0.0323136 -0.333446 46.1136 -5.58445 -0.424876 
3593 1 1 7.08973 0.435361 2.61913 0 1 0 0.283589 0.0174144 0.104765 7.08973 25.4354 2.61913 -0.170545 1.01099 -0.518976 -12.618 -9.55527 -18.7838 
798 1 1 2.86215 11.5742 3.87613 0 0 0 0.114486 0.46297 0.155045 2.86215 11.5742 3.87613 -0.0650244 0.943543 -0.126829 1.42113 -4.16573 5.51938 
2848 1 1 11.2222 5.12406 0.346524 0 0 1 0.448888 0.204962 0.013861 11.2222 5.12406 25.3465 -0.164584 1.57091 0.587561 5.56809 -21.8077 2.34637 
972 1 1 7.37489 8.49466 1.04958 0 0 0 0.294996 0.339786 0.0419832 7.37489 8.49466 1.04958 -0.313684 -0.11982 -2.41927 -23.6659 26.936 1.09586 
4038 1 1 6.0006 8.01697 1.19697 0 1 0 0.240024 0.320679 0.0478787 6.0006 33.017 1.19697 0.810457 -0.388893 -1.24422 8.2623 -15.0224 -2.6191 
12902 1 1 11.2576 10.7711 3.24451 0 0 1 0.450304 0.430843 0.12978 11.2576 10.7711 28.2445 -0.837387 -0.248208 -0.885951 -1.62638 8.10273 -16.4847 
3190 1 1 0.306647 3.61994 0.575576 0 0 1 0.0122659 0.144798 0.0230231 0.306647 3.61994 25.5756 0.280561 0.0216643 0.478258 2.75432 5.66585 -9.56042 
142 1 1 5.89423 10.9548 3.59569 0 0 0 0.235769 0.438193 0.143828 5.89423 10.9548 3.59569 -0.237667 -0.573931 0.622406 15.4807 -8.57001 9.66761 
3508 1 1 3.29522 1.45759 4.34446 0 1 0 0.131809 0.0583035 0.173778 3.29522 26.4576 4.34446 1.20551 1.5549 -0.0560476 3.91226 -2.7529 -12.0784 
6522 1 1 12.0548 1.63641 2.58458 0 1 1 0.482194 0.0654564 0.103383 12.0548 26.6364 27.5846 0.764929 -0.371149 1.55443 -27.8447 1.93061 -13.175 
10589 1 1 2.19099 4.75255 0.606118 1 0 0 0.0876397 0.190102 0.0242447 27.191 4.75255 0.606118 -0.957462 1.40196 1.95412 28.4555 -4.55235 2.47594 
4258 1 1 3.92008 3.26227 2.7268 0 1 0 0.156803 0.130491 0.109072 3.92008 28.2623 2.7268 0.0794679 -2.37736 -0.570678 -1.29033 -8.19059 -25.4275 
821 1 1 12.0471 8.76511 1.38708 0 0 0 0.481886 0.350604 0.0554833 12.0471 8.76511 1.38708 0.371466 0.147523 -0.0224765 -29.0823 24.5004 -35.886 
7769 1 1 4.75489 7.19583 1.18636 1 0 0 0.190195 0.287833 0.0474543 29.7549 7.19583 1.18636 0.242059 -0.561505 1.48007 -77.8084 -16.8262 -56.7727 
3283 1 1 2.90312 8.47472 5.22712 0 0 1 0.116125 0.338989 0.209085 2.90312 8.47472 30.2271 -0.498812 -0.730373 0.325228 0.323396 -0.377103 0.138306 
3788 1 1 7.9753 4.88404 2.12133 0 1 0 0.319012 0.195362 0.0848534 7.9753 29.884 2.12133 -1.05889 -0.240364 -0.330779 -10.6127 16.9232 9.12156 
237 1 1 2.61981 6.03765 2.31007 0 0 0 0.104792 0.241506 0.0924027 2.61981 6.03765 2.31007 0.284687 -2.12109 1.21766 8.16808 -23.2792 4.19684 
3842 1 1 0.531504 12.0666 2.19658 0 0 0 0.0212602 0.482663 0.0878631 0.531504 12.0666 2.19658 0.292649 0.447708 1.03649 9.45291 -2.07484 -8.38063 
10294 1 1 12.1334 3.27458 0.136024 0 1 0 0.485335 0.130983 0.00544094 12.1334 28.2746 0.136024 0.147156 1.76838 -0.773145 -5.0605 16.9689 -11.6599 
826 1 1 1.77425 12.4645 2.71083 0 0 0 0.0709699 0.498582 0.108433 1.77425 12.4645 2.71083 0.446892 0.803804 -1.92972 7.97156 -30.1321 -16.0816 
9861 1 1 6.76986 9.36356 0.882142 0 0 1 0.270794 0.374542 0.0352857 6.76986 9.36356 25.8821 -1.68667 -0.725388 -0.17706 -6.30587 3.64903 -2.28064 
10018 1 1 0.938884 5.48046 2.24815 1 0 1 0.0375554 0.219219 0.089926 25.9389 5.48046 27.2481 1.35582 -0.693752 0.630764 -5.33627 13.8222 -7.84006 
713 1 1 2.74036 4.47741 4.23216 0 0 0 0.109614 0.179096 0.169286 2.74036 4.47741 4.23216 -1.54311 0.543507 -1.4216 12.0308 -35.5024 -19.4052 
3201 1 1 6.72934 2.13935 4.01831 0 0 1 0.269173 0.0855741 0.160732 6.72934 2.13935 29.0183 0.657686 -0.909115 -0.215793 -13.612 13.063 18.1388 
646 1 1 10.0467 8.87748 1.73948 0 0 0 0.40187 0.355099 0.0695792 10.0467 8.87748 1.73948 0.900262 0.608852 -0.200386 2.10517 -24.2629 13.5447 
8091 1 1 8.04177 11.0853 4.14499 0 0 0 0.321671 0.443412 0.165799 8.04177 11.0853 4.14499 0.5527 -1.27745 0.327688 8.88796 -9.34418 1.03693 
309 1 1 8.95429 8.09323 5.30815 0 0 0 0.358171 0.323729 0.212326 8.95429 8.09323 5.30815 1.16072 0.877607 -1.20374 39.2537 13.0465 -35.9458 
3194 1 1 1.30759 5.85519 3.79443 0 0 1 0.0523037 0.234207 0.151777 1.30759 5.85519 28.7944 -1.31497 -1.07427 -1.29113 8.97996 -7.93917 22.537 
3554 1 1 4.94982 4.89121 4.0903 0 1 0 0.197993 0.195648 0.163612 4.94982 29.8912 4.0903 -2.3255 -0.906128 0.389925 10.465 -44.9916 12.5951 
127 1 1 3.09414 5.26548 1.36267 0 0 0 0.123766 0.210619 0.0545069 3.09414 5.26548 1.36267 -0.897497 1.10425 -0.440287 -8.50893 19.3511 -6.47631 
10053 1 1 10.16 6.58935 1.20787 0 0 1 0.406401 0.263574 0.0483147 10.16 6.58935 26.2079 -0.664724 0.489431 -0.482702 -11.5665 3.62958 -1.47607 
7835 1 1 12.1945 8.43223 3.98779 0 0 0 0.487781 0.337289 0.159512 12.1945 8.43223 3.98779 0.410271 0.280585 1.37666 7.55546 -6.90645 -7.85164 
957 1 1 11.8421 1.09577 5.55067 0 0 0 0.473683 0.0438309 0.222027 11.8421 1.09577 5.55067 -1.46161 1.05409 0.808175 16.0774 27.4387 -2.09019 
3878 1 1 0.522535 10.5107 2.02164 0 0 0 0.0209014 0.420428 0.0808657 0.522535 10.5107 2.02164 0.848573 1.2186 -1.16642 -33.0786 -17.039 8.0988 
279 1 1 6.53106 6.27643 0.0767033 0 0 0 0.261242 0.251057 0.00306813 6.53106 6.27643 0.0767033 -0.218157 -0.958312 -1.51659 -2.02477 9.8615 2.69839 
7460 1 1 10.636 0.634383 3.11345 0 0 0 0.42544 0.0253753 0.124538 10.636 0.634383 3.11345 0.749137 0.635583 -0.0162413 -26.6577 5.87305 3.64138 
13297 1 1 9.43035 12.4604 4.29617 0 0 1 0.377214 0.498417 0.171847 9.43035 12.4604 29.2962 1.10055 0.348308 0.519859 13.0041 27.2936 0.135467 
3323 1 1 6.32777 11.8718 3.44504 0 0 1 0.253111 0.47487 0.137802 6.32777 11.8718 28.445 -1.64157 -0.0684065 1.30061 12.9076 12.6034 -22.5914 
888 1 1 6.72901 2.28768 5.23898 0 0 0 0.26916 0.0915073 0.209559 6.72901 2.28768 5.23898 0.382403 0.166611 0.182551 -14.0189 -42.1383 2.01764 
885 1 1 7.06546 7.40091 1.73159 0 0 0 0.282619 0.296037 0.0692635 7.06546 7.40091 1.73159 -0.62391 1.79619 -1.68874 -1.25884 6.08331 -1.13497 
3837 1 1 10.6858 11.5142 2.29329 0 0 0 0.427434 0.46057 0.0917317 10.6858 11.5142 2.29329 0.199176 0.0719018 -0.393044 -1.33511 -0.588386 -1.72058 
872 1 1 8.69227 9.42135 1.26286 0 0 0 0.347691 0.376854 0.0505142 8.69227 9.42135 1.26286 0.252825 -1.30646 0.976861 -39.5997 -23.8539 0.976175 
3520 1 1 0.649555 3.8173 6.16751 0 1 0 0.0259822 0.152692 0.2467 0.649555 28.8173 6.16751 1.95202 0.891186 0.371908 -5.82952 18.8727 -15.8125 
11267 1 1 10.0183 7.51709 5.09524 0 0 0 0.400734 0.300683 0.20381 10.0183 7.51709 5.09524 1.11892 1.24316 0.927333 -6.08825 60.4188 -23.2079 
358 1 1 6.66029 8.87155 4.07816 0 0 0 0.266412 0.354862 0.163126 6.66029 8.87155 4.07816 0.296293 -0.169961 -0.32015 5.23803 7.01522 -6.971 
3052 1 1 0.7772 2.94149 1.93817 0 0 1 0.031088 0.11766 0.0775268 0.7772 2.94149 26.9382 0.505143 -0.432195 -0.129512 -3.33275 -2.42419 13.59 
8078 1 1 2.74726 8.25702 3.97406 1 0 0 0.10989 0.330281 0.158962 27.7473 8.25702 3.97406 1.73444 -0.231352 0.433726 -1.84944 10.3745 25.271 
4049 1 1 12.1164 2.49721 3.13934 0 1 0 0.484656 0.0998885 0.125574 12.1164 27.4972 3.13934 0.322273 0.706429 -1.36121 11.5492 14.4523 -0.0976379 
177 1 1 9.27476 9.29252 2.38875 0 0 0 0.37099 0.371701 0.0955498 9.27476 9.29252 2.38875 -1.92441 -3.98139 0.201324 -14.1213 -0.819108 -11.62 
218 1 1 4.29729 5.74176 4.58895 0 0 0 0.171892 0.22967 0.183558 4.29729 5.74176 4.58895 -1.69884 0.269296 0.451399 -5.0133 -2.15236 11.9968 
621 1 1 8.32984 12.4901 4.56384 0 0 0 0.333193 0.499602 0.182554 8.32984 12.4901 4.56384 -0.220281 0.382739 -1.4585 6.54347 9.55635 -11.3425 
4561 1 1 8.48603 11.039 5.28655 0 0 0 0.339441 0.441561 0.211462 8.48603 11.039 5.28655 -0.180027 0.200463 0.998763 2.42374 -10.3301 -19.4549 
234 1 1 7.00393 4.65645 1.68537 0 0 0 0.280157 0.186258 0.067415 7.00393 4.65645 1.68537 -0.756505 -0.929579 0.410839 30.3178 -21.9784 23.6919 
10460 1 1 12.3535 11.2895 2.82838 0 0 0 0.494138 0.451581 0.113135 12.3535 11.2895 2.82838 -1.15623 -0.16292 -0.754676 -8.14075 -22.1024 19.8912 
1142 1 1 0.197676 0.533976 4.92102 0 0 0 0.00790704 0.021359 0.196841 0.197676 0.533976 4.92102 0.415883 -0.50216 0.574623 -20.2287 -14.8681 -2.3177 
60 1 1 11.5791 0.14813 5.41274 0 0 0 0.463162 0.0059252 0.216509 11.5791 0.14813 5.41274 0.812331 0.222585 1.00948 4.4578 -38.1648 -10.5806 
4149 1 1 5.36594 2.25248 3.66981 0 1 0 0.214637 0.0900991 0.146792 5.36594 27.2525 3.66981 -0.341829 1.83575 1.0377 6.18745 -5.1975 10.8416 
10768 1 1 11.4778 5.42676 2.59382 1 1 0 0.459112 0.21707 0.103753 36.4778 30.4268 2.59382 0.370908 0.477075 0.398919 12.1246 -5.51831 0.804941 
3289 1 1 3.96693 6.06918 2.88155 0 0 1 0.158677 0.242767 0.115262 3.96693 6.06918 27.8816 -1.37792 -0.836267 0.574703 15.6946 -6.30709 5.04103 
3258 1 1 10.0556 8.01967 1.13934 0 0 1 0.402223 0.320787 0.0455737 10.0556 8.01967 26.1393 -0.0530826 0.938566 -0.225993 10.2389 -16.4319 -12.8321 
7323 1 1 10.8266 12.0802 1.32314 0 0 0 0.433065 0.483209 0.0529258 10.8266 12.0802 1.32314 -0.810967 0.139789 -0.388557 9.9716 22.2761 1.68762 
546 1 1 6.71565 3.17465 4.78576 0 0 0 0.268626 0.126986 0.19143 6.71565 3.17465 4.78576 0.222723 -1.35636 0.0108143 -20.7568 9.18616 -6.33605 
493 1 1 3.43736 1.07382 2.76089 0 0 0 0.137495 0.0429528 0.110436 3.43736 1.07382 2.76089 1.1202 1.27703 -2.34175 3.47294 -0.330696 -18.1233 
1742 1 1 12.0205 6.0341 3.36886 0 0 0 0.480822 0.241364 0.134754 12.0205 6.0341 3.36886 2.03244 -1.54849 0.180262 11.9966 -4.37292 6.19048 
902 1 1 5.24921 0.703759 1.30831 0 0 0 0.209968 0.0281503 0.0523325 5.24921 0.703759 1.30831 -0.0877049 -0.721675 1.38358 -6.23736 -10.2181 -13.1979 
577 1 1 2.6554 0.678188 2.06775 0 0 0 0.106216 0.0271275 0.08271 2.6554 0.678188 2.06775 0.179184 -0.928626 1.77003 1.96579 3.71354 0.882023 
570 1 1 12.1335 2.11365 5.40892 0 0 0 0.485338 0.0845458 0.216357 12.1335 2.11365 5.40892 0.485215 -0.801218 -0.620699 -12.9991 -15.3446 7.96324 
50 1 1 4.69568 2.49399 4.50861 0 0 0 0.187827 0.0997596 0.180344 4.69568 2.49399 4.50861 0.208556 0.535336 0.0525808 14.2607 36.299 8.19157 
7858 1 1 4.75564 11.6171 0.508324 1 0 0 0.190226 0.464684 0.020333 29.7556 11.6171 0.508324 -1.55448 0.219131 -0.513878 6.614 -9.71703 -4.05398 
3357 1 1 7.80316 9.29998 3.61431 0 0 1 0.312127 0.371999 0.144573 7.80316 9.29998 28.6143 -0.448995 0.722072 0.82082 -10.8852 1.15297 10.4903 
2758 1 1 9.87656 5.55694 2.09091 0 0 1 0.395062 0.222277 0.0836365 9.87656 5.55694 27.0909 0.218867 1.0288 1.92503 -4.83456 8.46959 8.09131 
3191 1 1 4.03238 0.583224 3.64093 0 0 1 0.161295 0.023329 0.145637 4.03238 0.583224 28.6409 0.00057516 1.80266 1.33071 -13.0521 15.3891 -2.17583 
4870 1 1 1.64355 0.890041 5.2973 0 1 0 0.065742 0.0356017 0.211892 1.64355 25.89 5.2973 -1.10753 -1.03775 0.201285 1.84237 -9.12716 -1.81285 
3704 1 1 11.3953 10.4145 4.18221 0 0 0 0.45581 0.416581 0.167288 11.3953 10.4145 4.18221 -0.834267 0.265703 0.160124 -12.4743 13.1939 13.6489 
6814 1 1 11.3448 7.29794 3.89462 0 0 0 0.453792 0.291918 0.155785 11.3448 7.29794 3.89462 1.36454 -0.551922 -0.756931 4.34079 -8.02358 8.84811 
1066 1 1 4.43109 12.2295 5.07073 0 0 0 0.177244 0.48918 0.202829 4.43109 12.2295 5.07073 2.69132 -1.05542 0.190618 11.044 13.0471 1.53544 
3492 1 1 6.10651 4.79217 3.56189 0 1 0 0.244261 0.191687 0.142476 6.10651 29.7922 3.56189 -1.27756 -1.31786 -0.0944057 -10.8319 -14.2525 -33.2788 
2490 1 1 7.21839 0.553981 0.732435 0 0 1 0.288736 0.0221592 0.0292974 7.21839 0.553981 25.7324 0.58365 -0.821862 1.0388 16.3355 8.85528 -7.08473 
1334 1 1 12.0849 4.84702 4.7286 0 0 0 0.483396 0.193881 0.189144 12.0849 4.84702 4.7286 1.36761 -0.882146 -0.649124 1.53205 38.904 -21.1269 
3125 1 1 6.89276 5.76534 2.94506 0 0 1 0.275711 0.230614 0.117802 6.89276 5.76534 27.9451 0.320791 0.370942 -0.282699 -20.6726 -0.9764 -25.011 
10959 1 1 2.14218 1.33241 4.11898 1 1 0 0.0856871 0.0532965 0.164759 27.1422 26.3324 4.11898 0.53952 -0.307126 0.109247 16.4716 28.3885 10.3068 
778 1 1 1.85409 2.8385 1.80301 0 0 0 0.0741637 0.11354 0.0721203 1.85409 2.8385 1.80301 -1.35361 2.31761 0.218138 6.85988 -8.67466 0.380195 
7184 1 1 9.64498 8.46864 4.37271 1 0 0 0.385799 0.338746 0.174909 34.645 8.46864 4.37271 0.517564 -0.0469544 0.499715 -3.76531 37.5099 13.5592 
1207 1 1 11.9049 2.41393 0.655458 0 0 0 0.476197 0.0965571 0.0262183 11.9049 2.41393 0.655458 0.676512 -0.330251 0.696612 11.0805 -20.8798 16.9366 
7097 1 1 1.73413 8.90643 0.751714 0 0 0 0.0693653 0.356257 0.0300686 1.73413 8.90643 0.751714 -0.0902008 -1.43962 -0.521022 33.458 -45.2844 9.12472 
10322 1 1 11.2631 3.25056 0.974031 0 1 0 0.450522 0.130022 0.0389613 11.2631 28.2506 0.974031 0.487755 -0.489596 -1.09074 -0.518629 -3.88007 -0.183773 
667 1 1 8.09896 12.4211 1.59605 0 0 0 0.323958 0.496845 0.0638421 8.09896 12.4211 1.59605 -2.0836 -0.958781 0.783692 -0.827777 3.01122 -1.76751 
3271 1 1 1.97588 7.6372 1.72903 0 0 1 0.0790353 0.305488 0.0691611 1.97588 7.6372 26.729 1.47441 -0.69521 -1.69027 -17.2594 4.78261 -11.2502 
8397 1 1 0.781469 7.57315 2.2228 1 0 1 0.0312587 0.302926 0.0889121 25.7815 7.57315 27.2228 0.124111 -1.26025 1.25471 8.61392 6.26455 0.212439 
583 1 1 7.66706 10.4802 0.203393 0 0 0 0.306682 0.419206 0.0081357 7.66706 10.4802 0.203393 0.221917 -0.808323 0.347696 -12.0599 30.3791 11.1945 
120 1 1 10.8022 7.2444 0.612264 0 0 0 0.432088 0.289776 0.0244905 10.8022 7.2444 0.612264 -1.07425 0.652436 0.398726 2.40853 -32.9571 22.0317 
7277 1 1 12.2761 10.6706 1.64805 0 0 0 0.491045 0.426825 0.0659219 12.2761 10.6706 1.64805 0.134189 -0.198563 -2.3677 19.3049 -2.89947 42.5984 
2881 1 1 8.1466 9.68475 2.57177 0 0 1 0.325864 0.38739 0.102871 8.1466 9.68475 27.5718 -0.407358 -0.828995 -0.300212 -8.6319 -4.30089 -7.23668 
567 1 1 8.24199 7.99288 4.35529 0 0 0 0.32968 0.319715 0.174212 8.24199 7.99288 4.35529 -1.42018 0.284014 0.00706876 8.15849 -19.4776 5.06216 
856 1 1 0.741386 10.4655 0.99699 0 0 0 0.0296554 0.41862 0.0398796 0.741386 10.4655 0.99699 -0.939928 -0.152359 -0.343147 16.9952 -41.8356 -5.68461 
3325 1 1 8.9647 5.30932 2.73729 0 0 1 0.358588 0.212373 0.109492 8.9647 5.30932 27.7373 1.03274 -0.661441 0.536413 -2.88322 5.5074 16.4595 
6876 1 1 5.09871 9.16579 1.66454 0 0 0 0.203949 0.366631 0.0665817 5.09871 9.16579 1.66454 -0.878414 -0.229554 0.366956 4.34404 -8.11604 -8.94732 
138 1 1 12.5088 2.41237 4.51733 0 0 0 0.500351 0.096495 0.180693 12.5088 2.41237 4.51733 -1.58151 -0.0375344 2.56304 -60.1689 -31.245 -9.09189 
10776 1 1 7.57875 1.33683 2.40404 0 1 0 0.30315 0.0534731 0.0961616 7.57875 26.3368 2.40404 0.202555 0.381755 -0.0852105 10.203 5.42731 -4.11854 
112 1 1 5.65293 4.49944 1.73543 0 0 0 0.226117 0.179978 0.0694171 5.65293 4.49944 1.73543 1.1681 -0.0128095 -1.38203 27.8344 9.95448 24.2819 
7969 1 1 8.95479 5.22515 1.73572 0 0 0 0.358192 0.209006 0.0694289 8.95479 5.22515 1.73572 -0.151994 -3.45448 -0.507588 -7.93406 -6.13153 -34.2715 
4208 1 1 3.90466 1.37647 1.43385 0 1 0 0.156186 0.0550589 0.057354 3.90466 26.3765 1.43385 0.76117 -1.51487 1.28959 9.75297 -5.77025 4.29979 
10364 1 1 7.63727 3.1142 1.63388 1 0 0 0.305491 0.124568 0.0653552 32.6373 3.1142 1.63388 0.390851 -1.22329 -0.279324 -25.6384 -5.04279 -21.887 
13293 1 1 9.73889 6.08956 3.02692 0 0 1 0.389556 0.243582 0.121077 9.73889 6.08956 28.0269 -0.203616 0.610731 -0.259227 -10.7346 12.0899 -28.0371 
4114 1 1 4.23434 10.7641 3.92759 0 0 0 0.169374 0.430562 0.157104 4.23434 10.7641 3.92759 -0.032836 0.688927 0.304767 -28.8748 -0.914189 -4.55269 
8479 1 1 12.0146 5.84384 0.128135 0 0 1 0.480586 0.233754 0.00512542 12.0146 5.84384 25.1281 -0.500862 0.910758 -0.948548 8.35042 -3.54107 60.7141 
6873 1 1 8.23602 10.2714 1.60948 0 0 0 0.329441 0.410856 0.0643791 8.23602 10.2714 1.60948 -0.201667 1.2201 -0.157337 40.2313 -14.8086 -21.5886 
4022 1 1 5.79001 8.91905 0.796215 0 1 0 0.2316 0.356762 0.0318486 5.79001 33.9191 0.796215 -0.133703 0.00998741 -0.240029 -7.3329 16.9367 -7.35257 
1712 1 1 9.01957 2.96027 0.313015 0 0 1 0.360783 0.118411 0.0125206 9.01957 2.96027 25.313 -0.86815 1.17184 1.1641 -2.20622 5.61467 1.96077 
7255 1 1 1.37169 2.01857 4.72344 1 0 0 0.0548674 0.0807427 0.188938 26.3717 2.01857 4.72344 -1.61747 0.102154 0.0781233 31.6728 -18.9397 -4.4953 
848 1 1 10.2049 12.4598 6.06333 0 0 0 0.408197 0.498394 0.242533 10.2049 12.4598 6.06333 0.871558 -0.303029 0.18048 1.14172 -2.74465 -14.227 
3499 1 1 8.05808 11.588 0.216855 0 0 0 0.322323 0.463521 0.00867422 8.05808 11.588 0.216855 -0.899252 0.322559 0.601525 -25.0624 16.9777 -8.11366 
7152 1 1 1.33315 3.05424 5.7182 1 0 0 0.053326 0.12217 0.228728 26.3331 3.05424 5.7182 1.78483 1.071 0.20009 -15.0166 -1.81892 32.7962 
6628 1 1 4.52232 12.4193 6.1415 0 0 1 0.180893 0.496771 0.24566 4.52232 12.4193 31.1415 -0.161773 -0.627817 -2.07249 10.3134 -7.99552 -5.7864 
4288 1 1 11.142 12.1662 3.05567 0 0 0 0.44568 0.486649 0.122227 11.142 12.1662 3.05567 -1.41524 -0.369117 -1.84165 -1.10729 1.97227 -2.04596 
2807 1 1 2.25159 6.93752 2.56635 0 0 1 0.0900635 0.277501 0.102654 2.25159 6.93752 27.5664 1.62463 -0.020276 -0.336627 4.55218 29.6759 17.856 
7913 1 1 11.5939 2.63973 2.17535 0 0 0 0.463757 0.105589 0.0870139 11.5939 2.63973 2.17535 0.787135 -1.23048 1.49018 2.73995 21.4741 -6.44827 
2850 1 1 8.83887 4.34886 2.30653 0 0 1 0.353555 0.173954 0.0922614 8.83887 4.34886 27.3065 0.0604483 0.453233 -0.928748 11.1424 -22.7863 9.08744 
947 1 1 6.10997 1.98823 1.07402 0 0 0 0.244399 0.0795294 0.0429606 6.10997 1.98823 1.07402 -1.27836 2.93683 -0.807835 -9.74422 0.611986 1.3135 
8672 1 1 12.0466 8.01248 0.42407 0 0 0 0.481865 0.320499 0.0169628 12.0466 8.01248 0.42407 0.174399 -0.395279 1.63051 3.62861 11.9886 -11.7425 
1076 1 1 11.9915 6.16106 2.00818 0 0 0 0.479658 0.246442 0.0803274 11.9915 6.16106 2.00818 0.648058 -0.278516 0.467021 7.7853 -6.765 -2.53102 
3006 1 1 1.75724 5.92468 0.246826 0 0 1 0.0702895 0.236987 0.00987302 1.75724 5.92468 25.2468 -2.49361 0.474242 -1.43272 -15.8199 -1.61578 3.56889 
11318 1 1 3.36046 10.4033 4.43801 1 0 0 0.134419 0.416134 0.17752 28.3605 10.4033 4.43801 1.10321 -0.784545 0.421891 45.1237 -84.1543 -74.3376 
3203 1 1 8.25616 6.04693 2.21741 0 0 1 0.330246 0.241877 0.0886963 8.25616 6.04693 27.2174 -1.51489 0.664334 -0.571844 4.16073 1.53416 4.90459 
3286 1 1 6.64292 5.99008 4.23251 0 0 1 0.265717 0.239603 0.1693 6.64292 5.99008 29.2325 -1.49385 -0.384587 0.512017 -22.0289 41.0204 -11.3597 
3036 1 1 2.43131 6.0685 3.39858 0 0 1 0.0972525 0.24274 0.135943 2.43131 6.0685 28.3986 1.15876 -0.900744 -1.72875 0.224827 12.8633 -9.72417 
10529 1 1 6.81923 2.7576 0.890548 0 1 0 0.272769 0.110304 0.0356219 6.81923 27.7576 0.890548 0.50958 0.280961 -1.63222 7.87272 0.166849 -2.9624 
3100 1 1 9.11714 11.9295 5.5532 0 0 1 0.364685 0.477181 0.222128 9.11714 11.9295 30.5532 0.319288 0.428311 1.24023 -0.502426 4.65406 -12.4246 
12684 1 1 8.37622 3.22416 2.28527 0 1 1 0.335049 0.128966 0.0914109 8.37622 28.2242 27.2853 1.00862 0.64766 -1.35873 -6.61433 21.3439 56.6971 
2855 1 1 0.759507 7.09426 1.3465 0 0 1 0.0303803 0.28377 0.0538602 0.759507 7.09426 26.3465 1.4352 -0.631568 -1.68614 -2.99961 0.704086 -37.1677 
4002 1 1 4.97961 3.19853 5.512 0 1 0 0.199184 0.127941 0.22048 4.97961 28.1985 5.512 0.290926 -0.32661 0.409651 -18.706 -13.368 -0.453621 
2636 1 1 1.50321 4.0514 5.38826 0 0 1 0.0601284 0.162056 0.21553 1.50321 4.0514 30.3883 1.74383 -0.451284 -0.279072 -2.70847 -9.853 -2.82505 
7632 1 1 5.09956 10.3344 4.08205 1 0 0 0.203982 0.413374 0.163282 30.0996 10.3344 4.08205 -0.609815 -1.82708 -0.440949 21.8372 8.49979 31.5792 
46 1 1 4.99098 8.09339 1.58761 0 0 0 0.199639 0.323736 0.0635043 4.99098 8.09339 1.58761 -1.12492 -1.47268 0.700525 15.1288 16.3224 20.6152 
231 1 1 2.72301 3.5331 1.17103 0 0 0 0.10892 0.141324 0.0468412 2.72301 3.5331 1.17103 -0.661261 -0.600766 1.71088 14.3669 5.16377 21.0707 
3065 1 1 5.54077 6.99219 3.66093 0 0 1 0.221631 0.279688 0.146437 5.54077 6.99219 28.6609 -0.658953 -0.864198 -0.579898 7.20354 -1.04593 0.676562 
3228 1 1 6.46115 3.23022 1.7814 0 0 1 0.258446 0.129209 0.0712558 6.46115 3.23022 26.7814 1.92308 -0.192482 0.676183 0.592464 -7.15181 15.2481 
1030 1 1 2.03511 9.4548 3.84108 0 0 0 0.0814043 0.378192 0.153643 2.03511 9.4548 3.84108 1.02667 1.18139 1.18863 -65.2227 -0.883248 -23.5476 
10514 1 1 1.51912 1.88725 3.42307 1 1 0 0.0607648 0.0754902 0.136923 26.5191 26.8873 3.42307 -0.596047 0.483165 0.281796 -8.59306 -17.4995 -12.1012 
81 1 1 0.415728 3.85219 4.49584 0 0 0 0.0166291 0.154087 0.179834 0.415728 3.85219 4.49584 -0.929126 0.350512 -0.00994369 -3.94872 -1.7704 50.0908 
7411 1 1 11.2126 8.10718 1.07216 0 0 0 0.448506 0.324287 0.0428864 11.2126 8.10718 1.07216 0.845792 0.16535 -0.364376 -8.25512 11.9692 5.79193 
648 1 1 8.40212 8.61442 0.476561 0 0 0 0.336085 0.344577 0.0190624 8.40212 8.61442 0.476561 -0.885712 -0.0215642 0.233293 -30.1096 52.9512 19.2606 
10137 1 1 0.822256 11.6779 5.15415 1 0 0 0.0328902 0.467115 0.206166 25.8223 11.6779 5.15415 -1.0757 0.623576 -0.380309 5.6189 17.1003 7.2366 
794 1 1 12.4321 8.27153 2.10388 0 0 0 0.497283 0.330861 0.0841551 12.4321 8.27153 2.10388 -0.823653 0.123748 -0.408232 -11.3737 -39.922 37.7611 
7200 1 1 4.88322 9.19195 0.216199 1 0 0 0.195329 0.367678 0.00864795 29.8832 9.19195 0.216199 -0.357682 0.698967 -0.258694 6.48856 2.98019 -16.3915 
3887 1 1 8.03571 11.9931 3.58464 0 0 0 0.321428 0.479725 0.143386 8.03571 11.9931 3.58464 0.881271 -0.57173 1.62503 -1.79116 -6.39456 20.0633 
239 1 1 6.51156 1.13427 5.04042 0 0 0 0.260462 0.0453707 0.201617 6.51156 1.13427 5.04042 -0.785427 0.591445 1.45148 -16.98 31.2991 1.03774 
7309 1 1 12.3144 3.11106 5.31112 0 0 0 0.492574 0.124442 0.212445 12.3144 3.11106 5.31112 -1.24295 0.352078 0.243044 -1.03348 16.7748 8.58995 
3778 1 1 3.69229 3.31689 0.596031 0 1 0 0.147692 0.132676 0.0238413 3.69229 28.3169 0.596031 0.203949 -1.12861 1.80233 -7.06956 6.07615 -3.602 
1670 1 1 7.23371 10.1806 3.93794 0 0 0 0.289349 0.407222 0.157518 7.23371 10.1806 3.93794 -0.78901 -1.59555 0.62579 9.29396 4.69675 -8.44206 
1932 1 1 1.55422 5.40914 5.40199 0 0 0 0.0621686 0.216366 0.21608 1.55422 5.40914 5.40199 0.58708 0.1434 0.400045 -6.54441 28.9451 22.5476 
761 1 1 8.89461 1.11588 2.12214 0 0 0 0.355784 0.0446351 0.0848856 8.89461 1.11588 2.12214 1.93478 0.911061 -0.0137902 -4.77737 -1.2908 -4.34072 
3204 1 1 7.51502 6.88031 0.143498 0 0 1 0.300601 0.275212 0.0057399 7.51502 6.88031 25.1435 -0.356873 1.01815 0.762727 -10.9988 -26.1275 4.65738 
3082 1 1 7.3519 0.586452 4.93456 0 0 1 0.294076 0.0234581 0.197383 7.3519 0.586452 29.9346 0.204598 0.552263 1.73854 25.6115 -29.186 -4.30821 
4229 1 1 0.724497 1.36568 5.12113 0 1 0 0.0289799 0.054627 0.204845 0.724497 26.3657 5.12113 -0.230648 1.06979 -0.830516 -5.14554 -4.50019 -8.67141 
7098 1 1 10.8933 3.51396 3.99555 0 0 0 0.435731 0.140558 0.159822 10.8933 3.51396 3.99555 -1.03594 1.37326 -0.984494 -2.50598 11.1722 3.9583 
2887 1 1 1.45589 3.78369 1.64844 0 0 1 0.0582355 0.151348 0.0659375 1.45589 3.78369 26.6484 0.772861 -0.887536 -0.114524 -12.9448 16.5703 12.6862 
1193 1 1 3.67581 2.44093 4.2324 0 0 0 0.147033 0.0976374 0.169296 3.67581 2.44093 4.2324 -1.86859 -0.888665 -0.679688 -5.76626 5.09088 -19.7794 
7417 1 1 0.068407 9.18749 6.04953 1 0 0 0.00273628 0.3675 0.241981 25.0684 9.18749 6.04953 -0.2834 0.441315 1.31129 12.5154 3.53194 13.5166 
7289 1 1 2.99148 10.3248 1.01781 1 0 0 0.119659 0.412993 0.0407126 27.9915 10.3248 1.01781 0.585422 0.172803 0.965172 13.7152 6.53669 23.0825 
11265 1 1 1.98154 10.5649 3.21806 1 0 0 0.0792618 0.422594 0.128722 26.9815 10.5649 3.21806 0.146643 0.0864044 -0.274755 4.14346 0.305307 -1.03715 
7525 1 1 10.9505 1.89149 2.32334 0 0 0 0.438019 0.0756596 0.0929335 10.9505 1.89149 2.32334 0.667484 0.39148 -0.427833 -3.60182 -14.5089 6.28344 
547 1 1 10.7769 3.4493 2.32345 0 0 0 0.431078 0.137972 0.0929379 10.7769 3.4493 2.32345 -1.09182 -2.07152 1.3551 -18.2359 -5.65181 -1.75979 
336 1 1 12.0218 6.73973 5.5114 0 0 0 0.480873 0.269589 0.220456 12.0218 6.73973 5.5114 0.315756 0.556829 -2.0969 0.684339 -11.7183 8.44253 
107 1 1 9.80803 5.565 5.06384 0 0 0 0.392321 0.2226 0.202554 9.80803 5.565 5.06384 -0.816875 -1.68185 -0.643988 38.1456 34.0237 22.5781 
115 1 1 5.87237 9.97522 1.38802 0 0 0 0.234895 0.399009 0.055521 5.87237 9.97522 1.38802 1.02593 -0.228685 -0.206322 -3.05951 -2.35719 -8.33646 
584 1 1 5.74364 9.08995 3.5247 0 0 0 0.229746 0.363598 0.140988 5.74364 9.08995 3.5247 0.895581 -0.186219 -0.158923 -3.53347 10.1451 10.9996 
1359 1 1 5.36902 8.08976 5.79373 0 0 0 0.214761 0.32359 0.231749 5.36902 8.08976 5.79373 1.60253 0.372556 -0.612185 -13.5686 5.44561 3.11099 
351 1 1 11.9961 8.86185 3.0803 0 0 0 0.479845 0.354474 0.123212 11.9961 8.86185 3.0803 -1.33203 -0.484799 0.434299 -7.58444 -23.2266 -15.1488 
470 1 1 9.29291 2.71089 4.41235 0 0 0 0.371717 0.108436 0.176494 9.29291 2.71089 4.41235 0.243689 1.20373 1.06469 48.0917 33.6613 1.77486 
3544 1 1 1.17001 1.06934 4.19141 0 1 0 0.0468004 0.0427736 0.167657 1.17001 26.0693 4.19141 -1.0315 0.138573 0.179516 -24.5343 -4.60149 -4.22443 
1467 1 1 10.4238 6.76516 4.49126 0 0 0 0.416954 0.270606 0.17965 10.4238 6.76516 4.49126 1.61108 0.0569944 -0.151207 -17.1712 -10.5137 -5.12726 
11063 1 1 6.65358 10.3654 0.497707 1 0 0 0.266143 0.414616 0.0199083 31.6536 10.3654 0.497707 -0.0260063 1.78812 1.51946 5.19602 -38.3749 47.3415 
1312 1 1 1.99925 7.14997 3.9664 0 0 0 0.07997 0.285999 0.158656 1.99925 7.14997 3.9664 -0.912212 -0.399449 0.702371 29.496 -60.76 -6.42684 
4033 1 1 11.9459 9.82734 1.21342 0 1 0 0.477838 0.393094 0.0485368 11.9459 34.8273 1.21342 -0.158052 0.771662 2.03635 -20.1244 4.37421 -14.0995 
7962 1 1 2.23248 6.0787 1.37192 1 0 0 0.0892994 0.243148 0.0548769 27.2325 6.0787 1.37192 1.62049 -0.779356 1.45753 -13.3502 -43.7266 -18.4115 
8293 1 1 1.43889 10.1467 1.7853 1 0 0 0.0575556 0.40587 0.0714118 26.4389 10.1467 1.7853 -0.938158 0.589737 -0.650757 23.0369 -14.5679 0.089318 
369 1 1 4.47635 4.46372 1.83912 0 0 0 0.179054 0.178549 0.0735647 4.47635 4.46372 1.83912 -0.299239 -0.688749 0.631005 2.32067 -13.5198 -0.365715 
4685 1 1 7.48311 1.36342 5.96506 0 1 0 0.299324 0.0545369 0.238603 7.48311 26.3634 5.96506 -0.0836141 -1.30856 0.296919 -18.0521 -20.6172 -8.9912 
464 1 1 4.82267 9.33546 3.13698 0 0 0 0.192907 0.373418 0.125479 4.82267 9.33546 3.13698 -1.58285 0.42593 0.607499 -15.7967 15.1108 -15.3972 
387 1 1 5.96431 6.27699 2.11623 0 0 0 0.238572 0.25108 0.0846492 5.96431 6.27699 2.11623 -0.949586 -0.383156 0.845874 -8.87402 -7.34522 7.19219 
4091 1 1 8.38754 8.72062 2.99176 0 0 0 0.335502 0.348825 0.11967 8.38754 8.72062 2.99176 -1.16882 -0.492217 0.570912 -15.767 30.2477 -29.6824 
9666 1 1 7.14654 10.1718 2.85313 0 0 1 0.285861 0.406872 0.114125 7.14654 10.1718 27.8531 -0.171852 -0.609037 0.472224 18.6139 -25.2415 7.01431 
750 1 1 3.51236 2.6122 5.22556 0 0 0 0.140494 0.104488 0.209023 3.51236 2.6122 5.22556 1.69017 0.673713 1.17374 -3.52943 4.46912 13.5039 
1746 1 1 8.27037 7.08641 1.69135 0 0 0 0.330815 0.283456 0.0676541 8.27037 7.08641 1.69135 0.4478 0.973572 0.834394 22.6696 7.37573 24.0628 
474 1 1 10.5839 0.235667 0.661682 0 0 0 0.423356 0.00942667 0.0264673 10.5839 0.235667 0.661682 -1.36862 -0.0269674 -0.996354 -7.58592 1.82178 -31.586 
2987 1 1 0.73058 6.7404 0.270751 0 0 1 0.0292232 0.269616 0.01083 0.73058 6.7404 25.2708 0.476788 1.15047 0.307287 -19.4278 -19.6828 12.933 