ITEM: TIMESTEP
60000
ITEM: NUMBER OF ATOMS
13500
ITEM: BOX BOUNDS
0 25
0 25
0 25
ITEM: ATOMS id type mass x y z ix iy iz xs ys zs xu yu zu vx vy vz fx fy fz 
233 1 1 11.9259 0.430106 0.286406 0 0 0 0.477035 0.0172042 0.0114562 11.9259 0.430106 0.286406 -1.78908 2.12779 1.39374 19.1574 61.2071 -20.7123 
85 1 1 5.72009 1.78124 3.069 0 0 0 0.228803 0.0712497 0.12276 5.72009 1.78124 3.069 -1.52255 -0.315623 -0.67073 4.76285 -18.8839 4.17261 
3357 1 1 1.16444 11.3445 3.62905 0 0 1 0.0465775 0.453779 0.145162 1.16444 11.3445 28.6291 0.571991 -0.194745 -0.596515 -6.98443 2.00186 -9.19312 
13303 1 1 3.70383 10.2971 0.803809 0 0 1 0.148153 0.411886 0.0321524 3.70383 10.2971 25.8038 0.510197 -0.910531 0.555211 -11.748 -3.70386 44.2141 
13313 1 1 0.391435 4.1541 0.210874 1 0 1 0.0156574 0.166164 0.00843496 25.3914 4.1541 25.2109 -0.406865 -1.32126 -0.863181 -7.41276 -9.27704 -20.3298 
626 1 1 5.89751 8.29952 1.94367 0 0 0 0.2359 0.331981 0.0777468 5.89751 8.29952 1.94367 -1.53049 -0.38627 -0.200561 18.6173 28.336 -2.44819 
10450 1 1 4.69761 0.275309 5.50471 1 1 0 0.187904 0.0110124 0.220189 29.6976 25.2753 5.50471 -0.522712 -0.706538 -0.126566 -38.6457 -1.96848 -22.591 
9877 1 1 4.42779 4.32305 0.589938 1 0 1 0.177112 0.172922 0.0235975 29.4278 4.32305 25.5899 -0.659701 1.98014 -0.314588 3.42444 -3.56502 11.2898 
2959 1 1 1.92406 10.4096 3.39197 0 0 1 0.0769623 0.416383 0.135679 1.92406 10.4096 28.392 -0.87207 1.41682 -0.375107 -6.14256 4.18182 11.0189 
6876 1 1 1.50052 10.5149 4.53841 0 0 0 0.0600207 0.420596 0.181536 1.50052 10.5149 4.53841 -1.18752 0.0569698 0.0960574 7.57744 -3.47743 6.37288 
1878 1 1 6.56997 2.99153 3.80534 0 0 1 0.262799 0.119661 0.152214 6.56997 2.99153 28.8053 0.567816 -0.297815 1.391 4.17759 12.5911 -5.14938 
1834 1 1 0.0251753 8.00606 3.21565 0 0 1 0.00100701 0.320242 0.128626 0.0251753 8.00606 28.2157 0.0850363 0.919681 -0.0562899 -23.5167 6.47124 34.6157 
10043 1 1 1.0421 5.24002 3.5905 1 0 1 0.041684 0.209601 0.14362 26.0421 5.24002 28.5905 0.993748 0.289347 -0.69033 4.95791 -6.73167 5.7575 
3446 1 1 12.0085 11.6186 4.56996 0 0 0 0.48034 0.464744 0.182798 12.0085 11.6186 4.56996 -0.161086 0.321995 0.132644 19.9434 16.7506 -32.2151 
5717 1 1 8.79688 11.1627 2.52602 0 0 0 0.351875 0.446506 0.101041 8.79688 11.1627 2.52602 -0.877237 0.882005 -1.23283 3.49979 0.540915 4.92196 
3973 1 1 2.49757 9.37632 3.47545 0 1 0 0.0999028 0.375053 0.139018 2.49757 34.3763 3.47545 -2.16056 -1.64282 -0.995641 24.6112 2.23706 -4.87377 
11520 1 1 3.41447 10.5458 1.89207 1 0 0 0.136579 0.421831 0.0756826 28.4145 10.5458 1.89207 0.580105 -0.111175 0.707861 -3.74595 -8.67077 -8.97552 
3872 1 1 3.73011 11.5391 1.9244 0 0 0 0.149204 0.461564 0.0769759 3.73011 11.5391 1.9244 0.279965 0.315732 1.07567 4.61704 4.74581 -3.76068 
7546 1 1 12.3671 4.10912 2.06601 0 0 0 0.494686 0.164365 0.0826402 12.3671 4.10912 2.06601 -0.488832 -0.491531 0.616937 -15.9146 -4.93218 2.93628 
242 1 1 2.08113 1.44293 3.25595 0 0 0 0.083245 0.0577171 0.130238 2.08113 1.44293 3.25595 -0.0784462 -0.494239 0.393749 -12.3113 -2.86636 -9.21524 
4442 1 1 1.06422 5.78885 6.18795 0 1 0 0.0425687 0.231554 0.247518 1.06422 30.7888 6.18795 0.192909 0.534225 1.49597 17.9266 -8.05374 -83.5751 
1076 1 1 10.5523 8.49788 0.687187 0 0 0 0.42209 0.339915 0.0274875 10.5523 8.49788 0.687187 1.42946 0.64726 -0.973299 -19.6012 -5.66646 12.1583 
118 1 1 10.761 0.815795 3.70184 0 0 0 0.430441 0.0326318 0.148074 10.761 0.815795 3.70184 -1.83305 -1.33139 -0.384014 -0.512173 2.45812 4.57612 
5982 1 1 10.312 10.69 1.52222 0 0 1 0.412482 0.4276 0.0608887 10.312 10.69 26.5222 -0.00552844 -0.011498 -0.817868 12.9023 -2.59635 -13.7764 
6565 1 1 11.695 6.9545 4.50144 0 0 1 0.467801 0.27818 0.180058 11.695 6.9545 29.5014 -0.950142 -0.628855 -0.0381068 12.3137 -5.60655 0.605554 
3297 1 1 9.59563 11.0809 3.30609 0 0 1 0.383825 0.443238 0.132243 9.59563 11.0809 28.3061 0.430963 1.46309 -1.11767 -3.52812 7.84043 -1.85796 
16 1 1 2.79196 1.00306 2.68753 0 0 0 0.111678 0.0401225 0.107501 2.79196 1.00306 2.68753 0.973529 -1.32662 -1.04575 4.99273 -31.637 -4.87091 
1538 1 1 5.88679 12.4593 2.12621 0 0 0 0.235472 0.498372 0.0850484 5.88679 12.4593 2.12621 -2.61627 1.06671 -1.16546 -0.755885 13.8152 -1.15651 
890 1 1 11.3862 10.1151 1.1215 0 0 0 0.455448 0.404604 0.0448602 11.3862 10.1151 1.1215 0.326456 -0.222094 -0.952073 -0.346583 17.2515 22.2799 
6522 1 1 9.93049 1.00908 0.888659 0 1 1 0.397219 0.0403634 0.0355464 9.93049 26.0091 25.8887 -0.725869 -0.0773969 1.13093 -3.63734 -4.32807 -0.834762 
77 1 1 5.12359 5.56228 0.88976 0 0 0 0.204943 0.222491 0.0355904 5.12359 5.56228 0.88976 -0.11064 1.90386 -0.776707 5.51877 -1.05456 9.01274 
947 1 1 6.98598 2.42077 1.90021 0 0 0 0.279439 0.0968308 0.0760084 6.98598 2.42077 1.90021 -1.33253 -0.242035 -1.3694 -10.5941 12.1575 7.74669 
1164 1 1 0.769544 6.07457 2.99218 0 0 0 0.0307818 0.242983 0.119687 0.769544 6.07457 2.99218 0.607722 -1.27871 -0.83263 -6.72542 11.4115 -16.74 
7769 1 1 1.99748 8.42691 3.26417 1 0 0 0.0798993 0.337077 0.130567 26.9975 8.42691 3.26417 -0.377557 1.1275 -0.3661 -32.3441 42.3484 -12.8816 
578 1 1 0.715342 6.68947 5.6507 0 0 0 0.0286137 0.267579 0.226028 0.715342 6.68947 5.6507 -1.01809 -0.81155 -0.797317 1.60959 -3.63891 -11.991 
143 1 1 6.75759 5.42501 1.89526 0 0 0 0.270304 0.217 0.0758104 6.75759 5.42501 1.89526 -0.282356 1.09853 0.934894 0.683554 -1.40768 13.9935 
839 1 1 4.76727 9.52523 2.84137 0 0 0 0.190691 0.381009 0.113655 4.76727 9.52523 2.84137 0.22174 0.345095 0.595369 -15.1592 -7.9652 -33.5144 
7491 1 1 11.8211 3.27145 2.47984 0 0 0 0.472844 0.130858 0.0991938 11.8211 3.27145 2.47984 -2.66992 -0.764544 0.192985 17.3505 -31.9763 16.414 
112 1 1 4.1548 0.170289 2.34892 0 0 0 0.166192 0.00681155 0.0939567 4.1548 0.170289 2.34892 0.335567 -0.954019 -2.02472 -0.0550757 -11.1764 4.1242 
7819 1 1 10.3694 9.87952 2.19602 0 0 0 0.414774 0.395181 0.0878409 10.3694 9.87952 2.19602 0.245879 -0.142996 -0.353113 15.0854 6.59151 17.2774 
648 1 1 10.004 5.25234 2.21569 0 0 0 0.400159 0.210094 0.0886275 10.004 5.25234 2.21569 -0.399202 1.9607 0.044009 -44.7318 -33.5495 -4.24566 
6790 1 1 9.46189 2.24971 1.10787 0 0 0 0.378475 0.0899883 0.0443149 9.46189 2.24971 1.10787 1.29245 -1.06233 1.20774 6.99422 -5.21808 -8.65671 
6194 1 1 10.8377 5.72389 2.20932 0 0 1 0.433509 0.228956 0.0883729 10.8377 5.72389 27.2093 -0.647825 0.987649 -0.597587 39.4379 29.4164 17.8171 
10050 1 1 3.09256 4.58942 0.444094 1 0 1 0.123703 0.183577 0.0177638 28.0926 4.58942 25.4441 -1.31175 0.39173 -2.26835 -4.63183 0.935313 -2.18552 
727 1 1 0.634486 3.13979 2.95066 0 0 0 0.0253794 0.125592 0.118026 0.634486 3.13979 2.95066 0.583346 -1.49123 0.488674 -10.7089 -2.73905 -16.7604 
9562 1 1 1.91374 5.25818 5.54598 1 0 1 0.0765496 0.210327 0.221839 26.9137 5.25818 30.546 -0.342864 -0.648853 0.225984 -45.1686 -14.5955 49.4217 
3669 1 1 12.4197 8.75074 4.54937 0 0 0 0.496789 0.35003 0.181975 12.4197 8.75074 4.54937 0.221583 0.73098 0.69253 2.72372 9.47885 5.15721 
3194 1 1 1.61265 9.96169 5.58215 0 0 1 0.0645058 0.398468 0.223286 1.61265 9.96169 30.5822 0.561086 -0.554819 0.191984 -3.18174 15.1059 10.5133 
2308 1 1 11.0906 5.34925 0.721442 0 0 1 0.443624 0.21397 0.0288577 11.0906 5.34925 25.7214 0.750417 0.69089 -1.18307 17.5188 -4.717 -17.0898 
1089 1 1 3.00661 11.8918 2.57374 0 0 0 0.120264 0.475673 0.10295 3.00661 11.8918 2.57374 -0.467957 -0.226858 -1.17816 12.8231 -7.76692 39.7171 
4346 1 1 6.16282 11.4877 0.0606295 0 0 0 0.246513 0.459507 0.00242518 6.16282 11.4877 0.0606295 0.832634 0.559053 -1.55079 -6.68805 -11.3851 10.9282 
6801 1 1 5.96617 0.969084 0.675822 1 0 0 0.238647 0.0387634 0.0270329 30.9662 0.969084 0.675822 -0.0745022 -0.547413 -0.671001 6.60125 -10.4189 -2.53241 
10090 1 1 4.22653 9.41928 1.74887 0 0 1 0.169061 0.376771 0.0699549 4.22653 9.41928 26.7489 0.405566 0.609098 1.79587 15.4247 -4.83957 -4.88135 
650 1 1 9.85195 12.248 2.57241 0 0 0 0.394078 0.489921 0.102896 9.85195 12.248 2.57241 -0.327491 -1.22746 0.225344 -35.497 47.248 18.2503 
3 1 1 4.90725 6.40765 2.34962 0 0 0 0.19629 0.256306 0.0939846 4.90725 6.40765 2.34962 0.822982 2.34014 0.473387 -3.96153 -15.6643 -8.97323 
6676 1 1 0.270727 8.17734 6.02722 0 1 1 0.0108291 0.327094 0.241089 0.270727 33.1773 31.0272 1.51341 0.665581 0.678852 13.6685 13.2222 8.48562 
8407 1 1 12.1211 9.71643 5.79031 0 0 0 0.484844 0.388657 0.231613 12.1211 9.71643 5.79031 -0.580371 -1.48161 -0.892112 19.1522 -2.06321 52.8154 
7588 1 1 10.0739 9.07115 1.68542 0 0 0 0.402957 0.362846 0.067417 10.0739 9.07115 1.68542 -1.81553 2.85315 1.09201 -33.3746 -23.4015 -19.8454 
543 1 1 7.09064 11.7862 5.16055 0 0 0 0.283626 0.471448 0.206422 7.09064 11.7862 5.16055 0.051136 -0.0402014 0.251821 -21.2199 -25.9916 -8.67111 
3685 1 1 0.650747 11.8975 5.92795 0 0 0 0.0260299 0.475899 0.237118 0.650747 11.8975 5.92795 -1.77043 2.04855 -0.683351 8.37298 15.2415 8.61619 
948 1 1 11.977 1.58847 1.08901 0 0 0 0.479079 0.0635389 0.0435604 11.977 1.58847 1.08901 0.215627 1.92194 -0.358841 5.79249 -5.11392 -1.43664 
4416 1 1 12.0118 0.132127 2.76181 0 1 0 0.480471 0.00528507 0.110472 12.0118 25.1321 2.76181 0.592549 0.208154 1.58186 0.621676 -12.5341 16.9286 
8868 1 1 10.6466 9.57397 3.28388 0 0 0 0.425863 0.382959 0.131355 10.6466 9.57397 3.28388 0.141837 -1.63779 -0.510777 8.51042 8.47516 -17.0921 
9777 1 1 5.52798 6.83988 3.03232 0 0 1 0.221119 0.273595 0.121293 5.52798 6.83988 28.0323 0.00965548 2.0442 -0.269426 18.7276 -20.2509 -18.9241 
10993 1 1 4.12607 5.50237 2.07094 1 1 0 0.165043 0.220095 0.0828378 29.1261 30.5024 2.07094 2.49082 -0.86486 0.982992 -2.4095 -6.16048 -0.228141 
395 1 1 2.59348 7.67699 3.27784 0 0 0 0.103739 0.30708 0.131114 2.59348 7.67699 3.27784 0.503517 0.437041 -0.181426 32.9421 -19.8321 13.8283 
2909 1 1 9.46777 7.11219 1.39268 0 0 1 0.378711 0.284488 0.0557074 9.46777 7.11219 26.3927 -0.0918006 1.39157 1.09614 21.1205 -22.0461 -1.11437 
7160 1 1 11.7852 11.5749 2.35729 0 0 0 0.471408 0.462997 0.0942915 11.7852 11.5749 2.35729 0.0417777 -1.02531 0.318097 9.16693 1.1225 5.62237 
5409 1 1 3.53847 11.9525 3.48473 0 0 1 0.141539 0.4781 0.139389 3.53847 11.9525 28.4847 0.0947019 1.25548 -0.244265 15.0747 26.3332 -24.9124 
1441 1 1 0.835525 10.8817 5.60083 0 0 0 0.033421 0.435267 0.224033 0.835525 10.8817 5.60083 0.419156 -1.47798 1.70662 -1.39044 -8.47191 -7.2447 
8959 1 1 10.9495 8.84333 2.02323 0 0 1 0.437978 0.353733 0.0809294 10.9495 8.84333 27.0232 -0.206503 -0.975316 0.858308 48.5223 2.58871 -16.3634 
3065 1 1 0.776117 4.93382 5.47561 0 0 1 0.0310447 0.197353 0.219024 0.776117 4.93382 30.4756 0.901087 0.681747 1.64284 -11.9121 -33.6941 31.1825 
234 1 1 8.42722 3.09091 1.56436 0 0 0 0.337089 0.123636 0.0625745 8.42722 3.09091 1.56436 -0.525139 0.241846 1.32338 -20.2304 -17.1186 -1.43449 
3103 1 1 7.91643 2.35505 2.3857 0 0 1 0.316657 0.0942018 0.0954282 7.91643 2.35505 27.3857 0.530516 1.13599 -1.22843 -1.62773 -50.2523 -32.676 
130 1 1 2.81219 2.69512 0.553688 0 0 0 0.112488 0.107805 0.0221475 2.81219 2.69512 0.553688 -0.785186 -0.928104 -0.880472 13.4943 11.6999 10.304 
11043 1 1 11.6867 7.80208 5.23673 0 0 0 0.467466 0.312083 0.209469 11.6867 7.80208 5.23673 -1.77071 0.829767 0.469545 6.15752 0.658283 -2.48903 
4149 1 1 6.81552 6.02953 4.41581 0 1 0 0.272621 0.241181 0.176632 6.81552 31.0295 4.41581 -0.239294 0.848633 -0.312961 16.0406 9.27797 20.3764 
1250 1 1 1.45651 1.05869 2.4059 0 0 0 0.0582605 0.0423475 0.0962361 1.45651 1.05869 2.4059 0.636247 -0.245018 -0.807531 3.69229 -2.79682 -0.827888 
2859 1 1 0.0173964 8.17507 0.525688 0 0 1 0.000695858 0.327003 0.0210275 0.0173964 8.17507 25.5257 1.0919 -0.541277 -0.371312 48.4762 2.16171 12.2282 
3258 1 1 7.58022 4.40813 0.615352 0 0 1 0.303209 0.176325 0.0246141 7.58022 4.40813 25.6154 0.460048 0.418404 0.992702 10.8377 -11.2631 -8.83785 
7187 1 1 11.0641 10.9174 0.567278 0 0 0 0.442563 0.436697 0.0226911 11.0641 10.9174 0.567278 -1.41184 0.281837 0.552856 -4.23874 10.9203 -8.18107 
4208 1 1 3.34737 0.939793 0.731101 0 1 0 0.133895 0.0375917 0.029244 3.34737 25.9398 0.731101 2.09358 -1.134 0.84739 -4.69974 -3.62618 -17.379 
11244 1 1 3.69087 0.151864 5.66531 1 1 0 0.147635 0.00607456 0.226612 28.6909 25.1519 5.66531 -1.52947 0.671187 0.145579 -11.8696 -0.208835 4.79981 
9488 1 1 11.1969 3.90344 2.01736 0 0 1 0.447875 0.156138 0.0806944 11.1969 3.90344 27.0174 0.459727 -0.685026 -2.20765 -26.4707 18.118 -8.13464 
12947 1 1 8.0747 11.2378 0.572714 0 0 1 0.322988 0.449511 0.0229086 8.0747 11.2378 25.5727 0.235086 0.0798163 -0.428791 -14.5234 16.0574 36.0903 
5070 1 1 12.2909 5.01963 5.77661 0 0 0 0.491635 0.200785 0.231065 12.2909 5.01963 5.77661 -0.476012 -0.619738 -0.422236 1.58224 2.82041 -33.0516 
5890 1 1 6.38549 10.5384 1.79168 0 0 1 0.255419 0.421535 0.0716672 6.38549 10.5384 26.7917 0.526266 -1.40291 1.41036 22.6381 -33.3339 52.9318 
3197 1 1 10.2278 2.46058 4.57552 0 0 1 0.409111 0.098423 0.183021 10.2278 2.46058 29.5755 -0.387928 1.15447 -1.65061 -2.06308 -10.0232 -30.1777 
11482 1 1 8.51639 6.71488 4.24744 0 0 0 0.340656 0.268595 0.169897 8.51639 6.71488 4.24744 0.213179 0.206032 -0.196387 11.8387 15.6387 -12.3645 
7420 1 1 0.291995 12.2906 1.22452 1 0 0 0.0116798 0.491623 0.0489809 25.292 12.2906 1.22452 0.736336 0.58391 -0.551711 -1.18422 1.8706 6.02552 
1618 1 1 11.7181 0.888897 4.31862 0 0 0 0.468723 0.0355559 0.172745 11.7181 0.888897 4.31862 1.45351 0.160787 -1.31492 16.117 6.40384 -10.1373 
2914 1 1 2.39169 12.0321 5.1186 0 0 1 0.0956676 0.481284 0.204744 2.39169 12.0321 30.1186 -0.760692 -1.12417 1.65872 -7.11428 10.5483 0.719967 
451 1 1 0.306477 4.32901 4.74782 0 0 0 0.0122591 0.17316 0.189913 0.306477 4.32901 4.74782 0.181453 1.39832 -0.642715 8.00936 -12.225 -2.84624 
177 1 1 11.4013 6.31914 0.26391 0 0 0 0.456051 0.252766 0.0105564 11.4013 6.31914 0.26391 -0.268732 0.290701 -1.05147 -67.0581 38.601 -4.83232 
4175 1 1 4.57568 11.5409 2.51273 0 0 0 0.183027 0.461636 0.100509 4.57568 11.5409 2.51273 1.38116 0.87276 -0.822583 -10.5233 7.01799 9.12023 
6974 1 1 12.3781 11.6321 3.30644 0 0 0 0.495124 0.465282 0.132258 12.3781 11.6321 3.30644 0.15969 2.37773 0.561908 -12.0065 -1.86088 -31.331 
2490 1 1 4.05137 1.72921 1.03706 0 0 1 0.162055 0.0691683 0.0414822 4.05137 1.72921 26.0371 0.377365 0.675222 -0.600301 8.20853 -79.8314 -7.37872 
7351 1 1 8.66195 5.64748 1.50259 0 0 0 0.346478 0.225899 0.0601035 8.66195 5.64748 1.50259 -0.998932 0.0230429 -1.15019 4.7592 -4.84291 -1.0913 
1334 1 1 6.59128 4.79031 2.84582 0 0 0 0.263651 0.191612 0.113833 6.59128 4.79031 2.84582 1.05148 -1.1433 0.730858 1.62912 3.6952 8.09075 
7966 1 1 11.5648 5.23712 3.3095 0 0 0 0.462591 0.209485 0.13238 11.5648 5.23712 3.3095 -0.977388 -1.1192 0.309782 10.2093 -4.32749 -5.58111 
4008 1 1 3.12239 7.222 1.46185 0 1 0 0.124896 0.28888 0.0584739 3.12239 32.222 1.46185 0.194502 1.22538 0.397784 -0.167059 3.18844 11.2054 
5960 1 1 11.4726 12.369 1.75365 0 0 1 0.458904 0.494761 0.0701459 11.4726 12.369 26.7536 0.11431 -1.18979 0.247238 6.11597 43.0503 11.9657 
7184 1 1 9.5807 6.16521 1.8935 1 0 0 0.383228 0.246609 0.0757398 34.5807 6.16521 1.8935 1.60646 0.785805 -1.35309 1.63957 14.9824 -5.29526 
7060 1 1 2.53567 7.84443 2.23427 1 0 0 0.101427 0.313777 0.0893707 27.5357 7.84443 2.23427 0.462604 0.53914 0.299744 13.8486 18.39 5.0448 
9847 1 1 0.781016 7.94586 2.61199 1 0 1 0.0312406 0.317834 0.10448 25.781 7.94586 27.612 -0.835118 -0.145163 0.839127 31.4783 -14.48 -28.3008 
4943 1 1 1.62299 3.54305 2.10734 0 1 0 0.0649196 0.141722 0.0842935 1.62299 28.5431 2.10734 -1.09643 -0.51133 1.94069 -3.03768 -9.08218 0.0230404 
4035 1 1 10.7651 7.24245 4.8953 0 1 0 0.430602 0.289698 0.195812 10.7651 32.2425 4.8953 -0.242595 -0.971024 0.271869 24.8717 -20.3796 11.3093 
3271 1 1 3.0094 7.50821 4.49191 0 0 1 0.120376 0.300328 0.179676 3.0094 7.50821 29.4919 1.1778 -0.743321 -0.71597 0.700014 1.68936 -9.79256 
2799 1 1 7.34722 5.39242 1.03449 0 0 1 0.293889 0.215697 0.0413797 7.34722 5.39242 26.0345 -0.586434 -0.969169 0.766228 2.51581 12.751 -11.4933 
3168 1 1 1.14435 1.99086 0.346139 0 0 1 0.045774 0.0796343 0.0138456 1.14435 1.99086 25.3461 -1.00499 -0.506196 0.061391 24.3297 29.066 -2.187 
1338 1 1 11.6796 4.19001 2.9255 0 0 0 0.467185 0.1676 0.11702 11.6796 4.19001 2.9255 0.858111 -0.0592021 -0.420864 23.3636 15.1309 8.02303 
6162 1 1 8.0252 12.2768 1.10456 0 0 1 0.321008 0.491073 0.0441823 8.0252 12.2768 26.1046 -1.39266 -0.0859911 0.719396 -11.0775 -11.7394 -7.74576 
6814 1 1 4.62286 9.77541 0.878297 0 0 0 0.184914 0.391016 0.0351319 4.62286 9.77541 0.878297 -1.63909 -1.87977 -0.889916 -15.3213 -22.4383 -21.7431 
7728 1 1 12.3385 0.477281 1.39711 0 0 0 0.49354 0.0190912 0.0558842 12.3385 0.477281 1.39711 -0.704829 0.657251 1.56197 2.18127 -11.6144 -12.4344 
7173 1 1 10.0934 6.02845 3.12482 0 0 0 0.403736 0.241138 0.124993 10.0934 6.02845 3.12482 1.25519 -1.08587 -1.23192 1.13012 -14.9754 -26.8879 
4097 1 1 3.34452 11.4467 0.954949 0 0 0 0.133781 0.45787 0.0381979 3.34452 11.4467 0.954949 1.18525 1.52558 -0.799026 1.50161 -16.0414 10.1421 
1799 1 1 10.6521 6.92363 2.70801 0 0 0 0.426084 0.276945 0.10832 10.6521 6.92363 2.70801 -0.0562237 -0.502607 -0.426725 -8.28352 -0.563845 4.32599 
10555 1 1 0.319854 3.76681 1.2917 1 1 0 0.0127942 0.150672 0.051668 25.3199 28.7668 1.2917 1.3687 1.88269 -1.70126 -10.4549 10.7225 13.1445 
3603 1 1 1.17394 10.7017 2.44277 0 0 0 0.0469575 0.42807 0.0977108 1.17394 10.7017 2.44277 -0.1912 0.32231 0.0776651 15.6204 19.2002 -21.9348 
6777 1 1 3.75871 0.858512 1.68289 1 0 0 0.150348 0.0343405 0.0673157 28.7587 0.858512 1.68289 -0.713761 1.63236 -2.11334 0.520907 10.11 2.05527 
6440 1 1 0.848988 0.158453 5.64941 0 1 1 0.0339595 0.00633813 0.225976 0.848988 25.1585 30.6494 0.0102867 0.638934 -0.374631 14.1926 7.52952 30.5458 
571 1 1 0.584305 5.57976 1.91746 0 0 0 0.0233722 0.22319 0.0766982 0.584305 5.57976 1.91746 -1.83805 0.501746 -0.832398 0.368377 -37.2224 20.8079 
1703 1 1 11.3638 1.24134 5.67229 0 0 0 0.454554 0.0496537 0.226892 11.3638 1.24134 5.67229 2.02187 -1.27626 0.174706 4.56924 3.9631 -3.00168 
3681 1 1 11.3812 1.56952 0.239784 0 1 0 0.455247 0.062781 0.00959136 11.3812 26.5695 0.239784 0.519436 0.582988 0.683592 9.45246 -16.3686 9.10716 
2942 1 1 12.4964 2.69054 1.09692 0 0 1 0.499857 0.107622 0.0438767 12.4964 2.69054 26.0969 0.621526 0.163346 -0.514288 15.9319 -18.9914 -19.315 
3523 1 1 1.9864 0.107873 1.77437 0 1 0 0.0794561 0.00431493 0.0709748 1.9864 25.1079 1.77437 -0.617235 -0.452035 0.586191 -3.44787 16.7942 11.728 
7549 1 1 12.2788 4.42567 3.82229 0 0 0 0.491154 0.177027 0.152892 12.2788 4.42567 3.82229 -1.06934 -0.0647765 0.0956818 -11.5736 1.72397 11.5234 
4022 1 1 5.25925 10.9142 2.14957 0 1 0 0.21037 0.436568 0.0859829 5.25925 35.9142 2.14957 -1.07492 -0.565741 -1.16834 7.95501 5.09319 -10.9468 
3371 1 1 9.78341 7.77849 2.32694 0 0 1 0.391336 0.31114 0.0930778 9.78341 7.77849 27.3269 -0.916021 -0.296345 -0.282238 6.85874 9.07559 -17.624 
7305 1 1 0.628447 1.76628 2.06036 1 0 0 0.0251379 0.070651 0.0824143 25.6284 1.76628 2.06036 1.62509 0.66439 0.225346 4.66059 -9.62225 1.28678 
4704 1 1 3.05594 3.6787 1.82662 0 1 0 0.122237 0.147148 0.073065 3.05594 28.6787 1.82662 0.198957 -0.580617 0.846033 17.2042 -11.1267 0.7581 
7174 1 1 10.7604 3.85518 3.1233 0 0 0 0.430416 0.154207 0.124932 10.7604 3.85518 3.1233 -0.018454 -1.08724 0.673969 -18.7903 -18.571 10.4811 
3063 1 1 9.14478 9.70816 4.48818 0 0 1 0.365791 0.388327 0.179527 9.14478 9.70816 29.4882 -1.32503 0.285033 1.03 4.31733 -9.77405 -2.40319 
6951 1 1 7.80573 3.35631 0.740848 0 0 0 0.312229 0.134252 0.0296339 7.80573 3.35631 0.740848 -1.10848 -2.08037 -1.68014 9.19311 4.1765 -10.1125 
1349 1 1 7.51968 7.30941 1.65364 0 0 0 0.300787 0.292376 0.0661457 7.51968 7.30941 1.65364 -0.0496546 1.04961 0.145247 5.86027 3.73318 0.21535 
2807 1 1 2.34898 3.61791 0.428354 0 0 1 0.0939593 0.144717 0.0171342 2.34898 3.61791 25.4284 -1.10259 0.328769 0.821197 -1.8001 17.2029 0.0939128 
13021 1 1 8.96604 4.50678 2.97482 0 1 1 0.358642 0.180271 0.118993 8.96604 29.5068 27.9748 -0.695941 0.861502 0.418883 -2.35738 1.05214 0.0528714 
7969 1 1 4.08194 5.33735 0.432427 0 0 0 0.163278 0.213494 0.0172971 4.08194 5.33735 0.432427 -0.934807 0.37238 0.967932 -2.15816 -0.507702 4.08126 
2143 1 1 12.0937 3.5282 0.463904 0 0 1 0.48375 0.141128 0.0185562 12.0937 3.5282 25.4639 1.03234 2.28179 -1.0679 -35.5667 32.5724 -1.19841 
10011 1 1 5.85356 6.35023 4.19014 1 0 1 0.234143 0.254009 0.167606 30.8536 6.35023 29.1901 0.0900482 0.109991 1.83896 10.4981 -12.7624 -10.5627 
1467 1 1 10.2078 6.74154 6.21392 0 0 0 0.408312 0.269661 0.248557 10.2078 6.74154 6.21392 1.354 1.27372 0.720918 -7.44067 17.3256 -5.17335 
4545 1 1 10.5335 6.79661 1.64051 0 0 0 0.421339 0.271864 0.0656203 10.5335 6.79661 1.64051 0.545076 -0.438898 0.919326 -14.1569 0.816908 4.9151 
9737 1 1 9.89956 7.84912 4.38847 0 0 1 0.395982 0.313965 0.175539 9.89956 7.84912 29.3885 -0.277298 -0.0396771 -1.31464 16.4297 6.93101 -4.47649 
3203 1 1 3.77158 6.6242 4.22801 0 0 1 0.150863 0.264968 0.16912 3.77158 6.6242 29.228 -0.985292 1.10202 0.731632 -9.88526 19.8811 -10.5491 
4190 1 1 0.823523 2.17994 4.75171 0 1 0 0.0329409 0.0871978 0.190069 0.823523 27.1799 4.75171 -0.847213 1.86723 -0.387909 3.80373 -5.23766 7.76027 
12370 1 1 0.463734 7.30225 0.244609 1 1 1 0.0185494 0.29209 0.00978436 25.4637 32.3022 25.2446 -1.37938 -0.730028 0.41823 12.3836 -24.9746 -3.18044 
13349 1 1 1.18065 2.15848 1.31778 1 1 1 0.0472261 0.0863391 0.0527114 26.1807 27.1585 26.3178 2.32252 0.420897 0.769876 13.0416 -6.59203 14.7122 
10244 1 1 10.5425 1.85523 0.854838 0 1 0 0.4217 0.0742093 0.0341935 10.5425 26.8552 0.854838 0.914405 -1.00749 1.26065 3.27798 9.67844 8.60617 
12684 1 1 7.81681 4.15892 3.42251 0 1 1 0.312672 0.166357 0.1369 7.81681 29.1589 28.4225 0.308068 0.815831 0.003486 0.664019 55.4473 -3.78281 
6917 1 1 0.131516 10.201 0.101862 1 0 0 0.00526062 0.408038 0.00407447 25.1315 10.201 0.101862 -1.16194 0.202311 -0.641658 1.65811 0.353894 5.82445 
589 1 1 9.26329 4.76793 0.0510975 0 0 0 0.370532 0.190717 0.0020439 9.26329 4.76793 0.0510975 -1.17321 -0.0123336 -0.773669 11.147 -2.90521 -3.81013 
2979 1 1 1.83759 7.55716 3.94376 0 0 1 0.0735036 0.302287 0.157751 1.83759 7.55716 28.9438 -0.0828799 -0.0943994 -0.940652 10.288 -14.9306 33.8126 
11594 1 1 12.0676 9.79782 3.19778 0 0 0 0.482704 0.391913 0.127911 12.0676 9.79782 3.19778 0.67931 1.33877 -0.731957 39.8945 4.47136 -34.444 
4276 1 1 0.478215 8.78505 5.1328 0 0 0 0.0191286 0.351402 0.205312 0.478215 8.78505 5.1328 -0.821696 1.21125 0.0146684 -45.9345 -20.0082 -18.6801 
885 1 1 2.6569 7.13191 0.116715 0 0 0 0.106276 0.285276 0.00466859 2.6569 7.13191 0.116715 1.01965 0.425318 -0.421785 20.1259 22.0823 18.1976 
1229 1 1 11.2742 4.23578 4.13277 0 0 0 0.450967 0.169431 0.165311 11.2742 4.23578 4.13277 1.09397 1.37734 -0.435486 -3.10141 2.10557 -0.778032 
4263 1 1 10.7451 4.78311 1.51244 0 1 0 0.429803 0.191324 0.0604977 10.7451 29.7831 1.51244 0.461986 0.403962 0.163556 -6.32161 -9.48975 8.72809 
1030 1 1 2.30437 5.10142 1.1109 0 0 0 0.0921747 0.204057 0.044436 2.30437 5.10142 1.1109 -0.0450471 0.204503 0.764801 7.99473 27.457 0.340893 
8141 1 1 2.52546 5.98606 1.90462 1 0 0 0.101018 0.239443 0.0761848 27.5255 5.98606 1.90462 0.507521 -0.304584 -0.768504 60.98 -8.36141 21.7192 
528 1 1 12.3263 2.11375 0.116834 0 0 0 0.493054 0.0845501 0.00467336 12.3263 2.11375 0.116834 -0.241362 0.171237 -0.505645 7.50565 -7.56338 10.8422 
2029 1 1 8.78247 7.8012 2.61636 0 0 1 0.351299 0.312048 0.104655 8.78247 7.8012 27.6164 0.790198 1.43121 0.970406 -15.5092 -23.5779 -13.1934 
4674 1 1 11.8111 1.06108 3.20893 0 1 0 0.472444 0.0424431 0.128357 11.8111 26.0611 3.20893 -0.105107 -1.51183 0.422431 -0.502409 4.70595 3.3858 
7156 1 1 2.66606 11.821 1.68098 0 0 0 0.106642 0.472839 0.0672392 2.66606 11.821 1.68098 -0.107773 -0.410841 0.50886 12.6046 -28.068 -54.5042 
1097 1 1 9.27106 6.20911 3.68496 0 0 0 0.370842 0.248365 0.147399 9.27106 6.20911 3.68496 1.69403 0.316016 0.860905 -6.45398 10.7028 7.63544 
966 1 1 6.66915 0.167463 0.00298529 0 0 0 0.266766 0.00669853 0.000119412 6.66915 0.167463 0.00298529 0.62956 -1.37413 -0.302814 -0.0869301 5.01823 5.60589 
10322 1 1 10.9806 7.63133 4.02448 0 1 0 0.439224 0.305253 0.160979 10.9806 32.6313 4.02448 -0.162503 -0.342342 -0.226781 -2.74839 -3.8616 -26.4544 
11810 1 1 0.324658 0.0427269 4.84337 1 1 0 0.0129863 0.00170908 0.193735 25.3247 25.0427 4.84337 0.0924145 0.199421 0.48506 -20.1267 -17.2118 -38.9362 
11959 1 1 3.40907 12.3175 0.464259 1 0 1 0.136363 0.492698 0.0185703 28.4091 12.3175 25.4643 2.23645 0.812821 0.833649 -11.796 25.6159 -30.2286 
8229 1 1 12.2608 2.14863 1.90952 0 0 0 0.490432 0.0859454 0.0763809 12.2608 2.14863 1.90952 -1.80021 -1.13162 -1.37032 -4.63753 29.1962 13.4908 
557 1 1 10.6533 0.275519 0.484784 0 0 0 0.426131 0.0110208 0.0193914 10.6533 0.275519 0.484784 0.947639 0.00690038 -1.39381 15.2966 -2.92966 -2.08042 
10291 1 1 8.8759 0.341239 2.22879 0 1 0 0.355036 0.0136496 0.0891517 8.8759 25.3412 2.22879 0.292462 3.1504 -1.55433 -7.2069 0.710962 0.62081 
111 1 1 4.61448 10.0078 4.2597 0 0 0 0.184579 0.400312 0.170388 4.61448 10.0078 4.2597 0.234454 -0.253821 -1.4778 46.5691 -33.9389 84.1769 
3204 1 1 7.85531 9.06821 2.70202 0 0 1 0.314213 0.362729 0.108081 7.85531 9.06821 27.702 -0.406295 -1.41498 -0.120299 4.69025 6.11756 2.3406 
11491 1 1 11.9381 11.8959 5.61584 0 0 0 0.477524 0.475836 0.224634 11.9381 11.8959 5.61584 1.02716 -0.617853 -0.699326 -7.28494 -18.2559 15.7262 
6763 1 1 11.0089 0.519128 4.94377 0 0 0 0.440358 0.0207651 0.197751 11.0089 0.519128 4.94377 -0.294102 0.178882 0.808594 -5.02675 -13.0389 15.6357 
7098 1 1 5.23259 3.9211 1.93426 0 0 0 0.209304 0.156844 0.0773702 5.23259 3.9211 1.93426 2.58021 0.0804238 0.32689 54.802 -28.7459 57.4024 
7816 1 1 11.2856 0.678427 2.36935 0 0 0 0.451425 0.0271371 0.094774 11.2856 0.678427 2.36935 -1.78816 -0.332113 1.2267 -20.8726 15.184 -20.3792 
1193 1 1 2.11066 5.35205 3.81036 0 0 0 0.0844264 0.214082 0.152414 2.11066 5.35205 3.81036 1.10677 -0.12596 -1.08605 1.38665 10.1441 -2.62764 
10430 1 1 8.04933 11.9284 2.42095 0 0 0 0.321973 0.477136 0.0968379 8.04933 11.9284 2.42095 0.94699 0.772072 1.16398 23.8878 4.54674 -9.59866 
11223 1 1 12.2921 4.6747 0.089224 0 1 0 0.491682 0.186988 0.00356896 12.2921 29.6747 0.089224 0.752305 -0.144735 0.607885 0.109876 4.88403 7.44379 
7259 1 1 6.75744 6.03677 0.0451136 1 0 0 0.270298 0.241471 0.00180454 31.7574 6.03677 0.0451136 0.368635 -0.254015 1.07443 3.84735 7.94967 24.0491 
7525 1 1 2.57963 0.871551 1.49494 0 0 0 0.103185 0.034862 0.0597976 2.57963 0.871551 1.49494 -0.973289 -1.13101 0.49498 10.074 0.278167 -2.18505 
547 1 1 7.43442 5.11185 3.41607 0 0 0 0.297377 0.204474 0.136643 7.43442 5.11185 3.41607 1.37666 -1.39644 -2.47303 20.287 -23.6427 0.410925 
1855 1 1 0.372061 4.80948 0.984045 0 0 0 0.0148824 0.192379 0.0393618 0.372061 4.80948 0.984045 0.894919 -0.498632 -0.454429 -15.2363 3.06763 22.7124 
9655 1 1 5.35238 1.71739 1.23997 1 0 1 0.214095 0.0686956 0.0495989 30.3524 1.71739 26.24 0.550586 0.0190529 -0.184265 34.9829 -18.0199 60.7088 
11163 1 1 8.3893 9.65552 1.75023 0 0 0 0.335572 0.386221 0.0700092 8.3893 9.65552 1.75023 -0.557703 1.26103 0.2359 1.02835 -18.2198 -21.6019 
9482 1 1 7.19966 0.459587 3.08497 0 0 1 0.287986 0.0183835 0.123399 7.19966 0.459587 28.085 0.00208834 -1.71355 -0.156738 1.4135 -16.1167 -11.3512 
2941 1 1 11.611 2.60868 4.55572 0 0 1 0.464441 0.104347 0.182229 11.611 2.60868 29.5557 0.4336 -0.842157 -2.01263 -3.19538 -4.98714 20.1472 
219 1 1 11.1915 10.534 5.65124 0 0 0 0.447661 0.42136 0.22605 11.1915 10.534 5.65124 -0.0527202 2.12532 0.950187 5.06821 -19.6539 15.1861 
107 1 1 6.9645 7.837 5.32194 0 0 0 0.27858 0.31348 0.212878 6.9645 7.837 5.32194 0.0399926 -1.55831 0.83102 9.99531 18.3401 -15.154 
2866 1 1 10.3862 5.80186 1.30139 0 0 1 0.415449 0.232074 0.0520556 10.3862 5.80186 26.3014 0.203952 1.85099 0.94145 -28.2646 2.19464 -15.4448 
476 1 1 5.05655 1.5154 0.360417 0 0 0 0.202262 0.0606161 0.0144167 5.05655 1.5154 0.360417 -0.574698 -0.45659 0.932878 -25.784 2.51914 -50.661 
3863 1 1 11.8601 5.91585 2.31586 0 0 0 0.474402 0.236634 0.0926344 11.8601 5.91585 2.31586 -0.575608 -1.36696 -1.86192 2.42955 11.4513 0.12431 
4135 1 1 7.09488 12.238 1.64447 0 0 0 0.283795 0.489522 0.0657789 7.09488 12.238 1.64447 1.2194 2.16507 2.10603 -9.01954 18.2565 -17.4123 
8733 1 1 5.18268 9.75251 5.24749 0 0 0 0.207307 0.3901 0.2099 5.18268 9.75251 5.24749 -0.581158 0.58214 1.6054 -1.3933 23.9211 10.1519 
1241 1 1 9.32396 0.773701 3.34559 0 0 0 0.372958 0.0309481 0.133823 9.32396 0.773701 3.34559 -0.0897048 -0.760154 2.36462 3.75916 -19.8837 0.228908 
3150 1 1 1.20222 11.863 0.750079 0 0 1 0.0480886 0.474519 0.0300031 1.20222 11.863 25.7501 0.0973179 -0.0285413 -0.954282 9.34166 -2.23141 -3.31781 
3067 1 1 2.89862 10.1108 2.74309 0 0 1 0.115945 0.404434 0.109724 2.89862 10.1108 27.7431 -1.37733 -0.0970523 0.465216 -6.24083 -10.1782 -13.4124 
4685 1 1 4.73547 3.61654 4.27869 0 1 0 0.189419 0.144662 0.171148 4.73547 28.6165 4.27869 1.75927 -0.306364 0.762789 -6.7587 24.9938 5.80093 
7559 1 1 1.48758 3.99825 0.894378 1 0 0 0.0595034 0.15993 0.0357751 26.4876 3.99825 0.894378 0.99825 -0.633656 -1.23117 13.6768 26.1566 21.3883 
387 1 1 2.6197 8.4735 4.12729 0 0 0 0.104788 0.33894 0.165092 2.6197 8.4735 4.12729 0.391561 -0.0820528 -0.434951 4.59662 0.112483 3.5678 
6560 1 1 1.24128 11.8839 5.01196 0 0 1 0.0496513 0.475356 0.200478 1.24128 11.8839 30.012 -1.6487 0.112026 0.187281 3.17347 0.176589 -1.74037 
6521 1 1 6.40897 7.42395 1.41619 0 1 1 0.256359 0.296958 0.0566476 6.40897 32.4239 26.4162 -0.164349 0.0215001 0.521195 -2.61971 6.85444 -0.876243 
6786 1 1 1.27015 8.45474 4.5967 0 0 0 0.050806 0.33819 0.183868 1.27015 8.45474 4.5967 -0.169662 1.32584 -0.306599 18.2395 -9.51512 -24.3958 
4326 1 1 1.70535 11.592 1.59913 0 0 0 0.0682139 0.463681 0.0639654 1.70535 11.592 1.59913 -1.09578 0.430091 -1.00087 -17.6339 -5.6457 13.4997 
497 1 1 9.49454 2.29291 3.65351 0 0 0 0.379781 0.0917163 0.146141 9.49454 2.29291 3.65351 -0.251298 0.865839 -0.599508 -7.11773 56.6846 47.331 