ITEM: TIMESTEP
70000
ITEM: NUMBER OF ATOMS
13500
ITEM: BOX BOUNDS
0 25
0 25
0 25
ITEM: ATOMS id type mass x y z ix iy iz xs ys zs xu yu zu vx vy vz fx fy fz 
3985 1 1 4.31078 11.9653 2.63096 0 0 0 0.172431 0.478611 0.105238 4.31078 11.9653 2.63096 0.055928 -0.25011 -2.41424 -8.90462 -1.6471 24.06 
4019 1 1 4.30356 10.7114 3.14049 0 1 0 0.172142 0.428457 0.12562 4.30356 35.7114 3.14049 1.41559 -0.788323 0.646717 -36.1566 -10.8724 45.0792 
9877 1 1 7.28902 3.05681 0.456071 1 0 1 0.291561 0.122272 0.0182428 32.289 3.05681 25.4561 -0.250411 0.742455 0.645594 8.95972 5.83193 -2.06065 
11698 1 1 7.70334 2.01567 0.88664 1 1 1 0.308134 0.0806269 0.0354656 32.7033 27.0157 25.8866 0.486941 1.14875 -0.646011 -1.81314 -6.85326 -8.18042 
7187 1 1 9.4034 11.1663 2.53818 0 0 0 0.376136 0.446653 0.101527 9.4034 11.1663 2.53818 -0.842523 -0.267173 -0.823683 -29.7422 -0.0184118 -26.7799 
626 1 1 5.73701 10.3378 1.7559 0 0 0 0.22948 0.41351 0.0702362 5.73701 10.3378 1.7559 1.10575 -0.390429 0.109672 8.78664 -6.96794 9.60859 
10873 1 1 4.23907 10.9212 4.93321 1 0 0 0.169563 0.436846 0.197329 29.2391 10.9212 4.93321 -2.05384 -0.659493 -1.95653 -13.955 4.54966 -19.3411 
1680 1 1 12.1998 5.32941 1.83021 0 0 0 0.487993 0.213176 0.0732084 12.1998 5.32941 1.83021 -0.577839 1.93781 0.980291 -5.87602 -20.9296 -7.55948 
7098 1 1 6.42856 5.4137 2.18185 0 0 0 0.257142 0.216548 0.0872739 6.42856 5.4137 2.18185 0.725232 -0.383142 -0.549378 0.194135 -11.6351 -9.44309 
521 1 1 10.3367 3.50358 3.44155 0 0 0 0.413469 0.140143 0.137662 10.3367 3.50358 3.44155 -0.678311 -0.81745 0.108151 3.4547 -23.2626 -12.3952 
1878 1 1 5.146 1.28563 2.253 0 0 1 0.20584 0.0514253 0.0901199 5.146 1.28563 27.253 -1.71579 0.219631 -1.45545 -2.48491 5.92381 10.1034 
667 1 1 10.2634 5.70763 6.02138 0 0 0 0.410534 0.228305 0.240855 10.2634 5.70763 6.02138 0.283038 -0.746035 1.23772 -17.0675 4.51638 -1.70427 
533 1 1 6.23828 3.17236 0.339005 0 0 0 0.249531 0.126894 0.0135602 6.23828 3.17236 0.339005 0.70092 0.717235 2.45033 -10.6432 -15.9052 -4.05934 
3717 1 1 2.15904 12.1008 0.438955 0 0 0 0.0863615 0.484034 0.0175582 2.15904 12.1008 0.438955 -0.728081 1.48341 0.338314 2.81983 1.6383 -7.3477 
8229 1 1 11.2739 2.408 0.698488 0 0 0 0.450957 0.0963201 0.0279395 11.2739 2.408 0.698488 0.29171 -0.00682744 -0.719203 1.49504 -26.9336 6.02259 
9849 1 1 4.76738 9.734 1.5294 1 0 1 0.190695 0.38936 0.0611759 29.7674 9.734 26.5294 -1.18402 -0.382568 -0.0521252 -3.0363 26.8909 0.354054 
10993 1 1 3.98227 5.22802 2.09152 1 1 0 0.159291 0.209121 0.0836609 28.9823 30.228 2.09152 0.00256021 0.506648 0.153668 -6.30096 -19.8836 -6.9357 
8336 1 1 11.4705 7.97913 2.02126 0 0 0 0.45882 0.319165 0.0808505 11.4705 7.97913 2.02126 1.02834 -0.908457 -1.27355 9.81577 -13.3976 10.8148 
6951 1 1 11.0895 3.6269 1.58803 0 0 0 0.443578 0.145076 0.0635212 11.0895 3.6269 1.58803 0.0779814 0.990303 0.789171 21.2802 80.2815 -46.2056 
1691 1 1 1.19818 6.05142 1.46212 0 0 0 0.047927 0.242057 0.058485 1.19818 6.05142 1.46212 1.57604 0.784596 1.36549 13.3031 39.6877 -9.45665 
7915 1 1 9.30801 5.34059 1.82717 0 0 0 0.37232 0.213624 0.073087 9.30801 5.34059 1.82717 -0.708806 -1.12008 0.310964 4.12723 -0.0966367 -11.0962 
1665 1 1 12.4743 10.5887 5.83664 0 0 0 0.498972 0.423547 0.233466 12.4743 10.5887 5.83664 -1.22305 1.94687 -0.682175 -17.7218 55.3583 21.0916 
2411 1 1 4.73384 4.58967 1.53307 0 0 1 0.189354 0.183587 0.0613228 4.73384 4.58967 26.5331 -0.39076 -0.247041 1.22824 -7.5691 -3.95463 5.33713 
11187 1 1 11.3334 11.0666 4.63365 0 0 0 0.453336 0.442665 0.185346 11.3334 11.0666 4.63365 -0.397963 0.816349 0.0967886 6.32821 -17.0191 -11.9813 
130 1 1 4.16143 2.01057 0.507856 0 0 0 0.166457 0.0804229 0.0203142 4.16143 2.01057 0.507856 -0.295554 -0.026494 -1.61007 4.68909 9.38566 26.5719 
278 1 1 2.69257 4.80624 0.34983 0 0 0 0.107703 0.192249 0.0139932 2.69257 4.80624 0.34983 -1.37697 -0.410208 -0.196607 -4.43813 -4.4683 -0.33649 
204 1 1 1.56152 6.60769 3.45825 0 0 0 0.062461 0.264308 0.13833 1.56152 6.60769 3.45825 2.30184 0.353392 -1.18218 -0.827456 28.6162 2.41629 
3935 1 1 11.1869 1.04666 2.80539 0 1 0 0.447477 0.0418666 0.112216 11.1869 26.0467 2.80539 -1.01101 0.633023 -1.65896 -6.72975 -31.1545 14.0398 
9478 1 1 0.403981 5.45163 1.56065 1 0 1 0.0161592 0.218065 0.062426 25.404 5.45163 26.5606 0.461718 1.22673 1.39123 -9.56102 -9.4267 -9.84585 
13274 1 1 2.82386 2.87731 1.30364 1 1 1 0.112955 0.115092 0.0521458 27.8239 27.8773 26.3036 -0.873346 1.4425 0.31204 -10.3851 4.93498 9.09884 
11163 1 1 5.77866 4.72209 0.467866 0 0 0 0.231146 0.188884 0.0187147 5.77866 4.72209 0.467866 -1.842 -0.0157192 -1.92086 3.48014 -7.5137 4.78642 
947 1 1 9.94821 3.93917 0.533566 0 0 0 0.397928 0.157567 0.0213426 9.94821 3.93917 0.533566 1.58986 0.281377 -0.213517 15.5608 -11.6698 -3.87012 
5435 1 1 1.44798 9.34328 5.79737 0 0 0 0.0579191 0.373731 0.231895 1.44798 9.34328 5.79737 1.02753 -0.0207674 1.02182 -3.59069 -0.801897 -3.40791 
6447 1 1 5.96597 0.497518 0.25119 0 1 1 0.238639 0.0199007 0.0100476 5.96597 25.4975 25.2512 -0.51633 -1.36313 0.00984663 -2.1721 -10.9979 -12.802 
9068 1 1 0.174663 1.4855 0.844031 1 0 1 0.00698651 0.05942 0.0337612 25.1747 1.4855 25.844 0.146302 0.146036 0.250671 8.02738 -12.4246 1.98222 
143 1 1 4.22815 6.18984 2.63111 0 0 0 0.169126 0.247594 0.105244 4.22815 6.18984 2.63111 -0.0887274 0.538581 -0.455899 5.18745 -4.16738 -12.6212 
839 1 1 6.04292 6.86782 3.90543 0 0 0 0.241717 0.274713 0.156217 6.04292 6.86782 3.90543 -0.753192 1.3678 1.35351 7.47542 3.54288 9.86729 
10371 1 1 11.1965 11.4332 3.58372 0 0 0 0.44786 0.457327 0.143349 11.1965 11.4332 3.58372 1.48816 -1.53003 -0.0621393 10.4612 -1.22715 -15.5441 
1834 1 1 1.89415 10.0732 1.52554 0 0 1 0.0757659 0.402928 0.0610214 1.89415 10.0732 26.5255 -2.03108 -0.619251 0.825457 28.0985 8.55802 0.650109 
7819 1 1 9.6503 10.1316 2.95372 0 0 0 0.386012 0.405265 0.118149 9.6503 10.1316 2.95372 -0.907781 -0.872438 -0.337814 15.5446 19.2059 -38.1672 
569 1 1 12.1729 3.09628 4.87542 0 0 0 0.486917 0.123851 0.195017 12.1729 3.09628 4.87542 -0.320472 0.0537397 -0.428477 0.797296 -1.02711 8.74523 
240 1 1 1.1623 0.0764763 3.95324 0 0 0 0.046492 0.00305905 0.15813 1.1623 0.0764763 3.95324 0.412637 -0.0199743 -0.649651 -5.08527 -13.8124 6.3107 
6194 1 1 6.96893 5.13721 3.44126 0 0 1 0.278757 0.205488 0.13765 6.96893 5.13721 28.4413 -0.561846 -0.732642 -0.578943 -41.5685 15.6345 16.9946 
3600 1 1 11.2438 1.976 2.4591 0 1 0 0.449752 0.07904 0.0983641 11.2438 26.976 2.4591 0.184269 -0.0198035 0.637104 6.94452 22.4015 -14.0031 
12370 1 1 4.88805 7.9462 0.576769 1 1 1 0.195522 0.317848 0.0230708 29.888 32.9462 25.5768 -0.77846 -1.60097 -2.77281 -50.3425 17.7467 41.6392 
9562 1 1 6.19561 9.142 6.01102 1 0 1 0.247825 0.36568 0.240441 31.1956 9.142 31.011 -0.328096 0.0687298 1.75352 -12.7702 27.6992 -0.518329 
3669 1 1 8.57917 10.6494 1.80923 0 0 0 0.343167 0.425976 0.072369 8.57917 10.6494 1.80923 -0.102168 -1.52639 0.844845 28.7396 23.2341 -9.2417 
12733 1 1 0.805599 7.06471 1.99196 1 0 1 0.032224 0.282588 0.0796786 25.8056 7.06471 26.992 0.62772 -0.413439 -0.39312 -21.0542 -9.05338 1.14029 
12989 1 1 0.612073 4.50953 2.88434 1 1 1 0.0244829 0.180381 0.115374 25.6121 29.5095 27.8843 -1.32563 0.448656 -0.177059 -20.7585 30.3906 2.59701 
9031 1 1 9.7617 6.34771 3.61052 0 0 1 0.390468 0.253908 0.144421 9.7617 6.34771 28.6105 0.313129 -0.0470039 0.668118 5.58279 -6.24211 -9.0052 
320 1 1 4.87324 8.97642 0.119078 0 0 0 0.194929 0.359057 0.00476311 4.87324 8.97642 0.119078 -0.434158 0.577117 0.0263854 -9.06554 -23.0107 22.2785 
755 1 1 1.59759 6.5546 0.549363 0 0 0 0.0639035 0.262184 0.0219745 1.59759 6.5546 0.549363 0.378388 0.697701 0.420691 -18.3895 24.4273 -13.1013 
9934 1 1 10.7652 4.59709 1.09037 0 0 1 0.430609 0.183884 0.0436149 10.7652 4.59709 26.0904 -0.734374 -0.86579 -1.14451 10.8713 -33.8489 -18.6223 
3965 1 1 1.66873 2.1686 0.019897 0 1 0 0.0667492 0.0867442 0.00079588 1.66873 27.1686 0.019897 -0.516311 -1.24699 0.108091 19.6766 -47.5756 4.13962 
3 1 1 3.68274 5.44073 4.38653 0 0 0 0.147309 0.217629 0.175461 3.68274 5.44073 4.38653 0.826442 0.568235 -0.0787665 -2.46182 -2.59151 -6.97635 
8129 1 1 0.705627 7.45086 5.95176 1 0 0 0.0282251 0.298035 0.23807 25.7056 7.45086 5.95176 2.45098 0.11885 -0.828662 -36.7366 0.23049 13.5639 
13227 1 1 10.6338 7.16024 4.66167 0 0 1 0.425353 0.286409 0.186467 10.6338 7.16024 29.6617 -2.29673 -0.341787 0.385164 18.5845 3.89945 9.84614 
7588 1 1 6.51496 6.85219 1.11389 0 0 0 0.260599 0.274088 0.0445556 6.51496 6.85219 1.11389 0.280052 -2.01982 1.03096 6.09177 4.30623 -3.35947 
391 1 1 0.0874376 11.9474 4.34648 0 0 0 0.0034975 0.477897 0.173859 0.0874376 11.9474 4.34648 -0.142225 0.230111 0.091475 -2.1857 -26.252 -1.15526 
2324 1 1 4.88576 2.40107 2.24153 0 0 1 0.19543 0.0960428 0.0896612 4.88576 2.40107 27.2415 -0.645236 -0.00175383 -1.16155 -6.24256 -7.98287 -3.22512 
414 1 1 4.27674 3.91938 3.20828 0 0 0 0.17107 0.156775 0.128331 4.27674 3.91938 3.20828 0.388539 -0.741323 0.312224 -4.27097 8.20687 6.74875 
7961 1 1 0.268553 2.51739 3.09727 1 0 0 0.0107421 0.100696 0.123891 25.2686 2.51739 3.09727 -0.306591 -0.539725 1.33406 20.4763 5.75825 15.5702 
8868 1 1 11.3392 11.3099 0.741072 0 0 0 0.453568 0.452398 0.0296429 11.3392 11.3099 0.741072 -1.16412 -1.0996 -0.0410621 -3.04478 13.994 -4.2557 
9777 1 1 4.63566 7.91964 1.66493 0 0 1 0.185426 0.316785 0.0665973 4.63566 7.91964 26.6649 0.483762 -1.83771 -0.0152289 -9.11066 -23.1472 11.2544 
323 1 1 0.877137 12.4487 4.02091 0 0 0 0.0350855 0.497949 0.160836 0.877137 12.4487 4.02091 0.715965 1.71542 -0.895902 33.0641 5.70223 -15.1125 
395 1 1 5.01362 6.94876 1.98266 0 0 0 0.200545 0.27795 0.0793066 5.01362 6.94876 1.98266 1.79046 1.09598 -0.211143 -22.0382 0.051364 3.00947 
2909 1 1 7.55005 8.06754 2.88973 0 0 1 0.302002 0.322701 0.115589 7.55005 8.06754 27.8897 -0.884328 -1.51466 0.21972 31.9701 12.7152 -45.624 
9509 1 1 0.552615 1.8171 1.69966 1 0 1 0.0221046 0.072684 0.0679866 25.5526 1.8171 26.6997 -1.78103 -0.135417 0.481614 18.4961 23.4118 17.0175 
1372 1 1 8.34361 3.3713 2.28918 0 0 0 0.333744 0.134852 0.0915672 8.34361 3.3713 2.28918 -0.959804 -0.142065 -0.902319 -20.2612 -23.5259 -8.00261 
2308 1 1 11.343 8.96399 2.1041 0 0 1 0.453722 0.35856 0.0841638 11.343 8.96399 27.1041 0.367323 0.80398 -1.84954 -17.0938 22.5247 12.6936 
8959 1 1 11.1553 9.08869 3.62516 0 0 1 0.446211 0.363548 0.145006 11.1553 9.08869 28.6252 1.27681 -1.07626 0.769357 30.4194 -24.5288 36.7634 
4175 1 1 1.72407 11.9851 2.2058 0 0 0 0.0689628 0.479402 0.0882319 1.72407 11.9851 2.2058 -0.0774928 0.864204 1.11284 -7.00712 -25.6461 26.3855 
7431 1 1 11.6651 0.223392 2.16915 0 0 0 0.466606 0.00893568 0.0867662 11.6651 0.223392 2.16915 0.202307 -0.173394 0.191478 -6.52281 1.62862 -12.8605 
3103 1 1 10.2211 0.463899 4.44801 0 0 1 0.408842 0.018556 0.17792 10.2211 0.463899 29.448 -0.68451 -1.13246 0.728114 2.35688 27.6501 -27.6344 
2953 1 1 1.8872 0.532423 0.1398 0 0 1 0.0754881 0.0212969 0.00559201 1.8872 0.532423 25.1398 0.0786174 -0.818047 -2.2237 -2.13939 22.8249 30.0811 
4169 1 1 3.14818 7.56559 0.166561 0 1 0 0.125927 0.302624 0.00666245 3.14818 32.5656 0.166561 0.378981 1.65431 -0.648191 19.4335 15.0801 13.319 
9143 1 1 8.46198 5.78594 0.353569 1 0 1 0.338479 0.231437 0.0141428 33.462 5.78594 25.3536 -0.768602 0.93064 -0.925375 -11.8289 4.72235 -17.9116 
10546 1 1 12.2046 1.14621 2.44471 0 1 0 0.488185 0.0458482 0.0977885 12.2046 26.1462 2.44471 0.115633 0.991817 0.514417 -14.1456 2.00123 2.69635 
13303 1 1 3.70708 9.8363 1.19763 0 0 1 0.148283 0.393452 0.0479052 3.70708 9.8363 26.1976 0.28754 0.871884 0.30519 6.73932 6.15404 -9.75855 
3501 1 1 10.1048 0.51902 2.04644 0 1 0 0.404191 0.0207608 0.0818575 10.1048 25.519 2.04644 0.348011 -0.201146 0.306315 1.19517 -22.7085 24.3387 
55 1 1 7.71595 5.74172 3.02289 0 0 0 0.308638 0.229669 0.120916 7.71595 5.74172 3.02289 0.209235 0.378644 -0.245944 10.4859 41.1558 17.072 
11071 1 1 11.1536 11.4723 2.24368 0 0 0 0.446145 0.458891 0.0897472 11.1536 11.4723 2.24368 -0.985801 -0.544143 -1.72435 1.71721 -2.4963 -1.06168 
1149 1 1 6.25728 11.1535 0.22476 0 0 0 0.250291 0.446139 0.00899039 6.25728 11.1535 0.22476 -1.05809 -1.15082 -0.684011 4.42366 0.864165 13.3256 
3631 1 1 0.614322 9.19984 4.9799 0 0 0 0.0245729 0.367994 0.199196 0.614322 9.19984 4.9799 -0.787756 0.687499 0.619948 1.3326 -7.33848 -10.5055 
6598 1 1 7.67749 7.7359 0.166176 0 1 1 0.3071 0.309436 0.00664704 7.67749 32.7359 25.1662 -1.93133 1.48857 -2.18652 10.9386 14.7328 0.870703 
5357 1 1 11.6899 1.76811 3.49979 0 1 1 0.467598 0.0707244 0.139991 11.6899 26.7681 28.4998 0.0779318 0.144803 -1.25121 -16.121 -30.7378 20.0275 
1762 1 1 9.10065 8.448 0.216019 0 0 1 0.364026 0.33792 0.00864075 9.10065 8.448 25.216 -0.109038 0.0307025 -0.274692 6.95973 -4.16708 4.93267 
3197 1 1 7.19696 6.67714 3.9341 0 0 1 0.287878 0.267086 0.157364 7.19696 6.67714 28.9341 0.80258 -1.57455 0.881654 2.69348 -4.92812 2.62055 
11482 1 1 11.1213 9.46503 1.22506 0 0 0 0.444852 0.378601 0.0490023 11.1213 9.46503 1.22506 0.124431 -0.824002 -1.34681 27.3126 13.7149 -16.7969 
13353 1 1 6.73743 12.2376 3.09476 0 0 1 0.269497 0.489503 0.12379 6.73743 12.2376 28.0948 1.47146 -1.6027 -1.59582 -1.57416 8.07181 5.49203 
653 1 1 9.5787 4.91743 0.469082 0 0 0 0.383148 0.196697 0.0187633 9.5787 4.91743 0.469082 -0.681379 0.693118 -1.16579 -22.2164 -18.3811 2.70976 
3224 1 1 10.1326 8.32031 2.18297 0 0 1 0.405305 0.332813 0.0873188 10.1326 8.32031 27.183 0.637032 -0.0926016 2.88434 23.8044 18.4909 13.9955 
10771 1 1 12.1234 11.1835 1.41401 0 1 0 0.484938 0.44734 0.0565602 12.1234 36.1835 1.41401 -1.03848 1.40035 -0.393584 10.2418 0.342164 30.3044 
6 1 1 10.1062 5.35617 2.58847 0 0 0 0.40425 0.214247 0.103539 10.1062 5.35617 2.58847 -1.57034 0.520964 -0.183938 -37.6675 -107.109 -10.7605 
7872 1 1 5.32484 8.84409 4.73411 1 0 0 0.212994 0.353764 0.189365 30.3248 8.84409 4.73411 -0.094489 0.518989 -0.732359 15.8248 8.7198 -44.1467 
1087 1 1 1.98124 12.124 4.20371 0 0 0 0.0792494 0.484959 0.168148 1.98124 12.124 4.20371 0.443828 1.07378 -0.338169 -3.0303 -11.4902 1.75881 
2361 1 1 10.6296 8.02415 1.3531 0 0 1 0.425183 0.320966 0.0541238 10.6296 8.02415 26.3531 0.290269 -0.823039 -1.93905 14.8271 18.8661 -27.4465 
7351 1 1 10.3165 7.22186 1.88833 0 0 0 0.412662 0.288874 0.0755333 10.3165 7.22186 1.88833 1.25202 2.19587 1.57582 -17.9541 -25.8976 0.515333 
1334 1 1 6.64519 4.06245 0.557563 0 0 0 0.265808 0.162498 0.0223025 6.64519 4.06245 0.557563 -0.113772 -0.737937 0.745151 -11.4514 10.1327 -18.1855 
1250 1 1 3.0901 0.524273 1.09245 0 0 0 0.123604 0.0209709 0.0436981 3.0901 0.524273 1.09245 1.17744 -0.694751 0.931361 31.1196 20.9167 17.8942 
9890 1 1 11.0403 12.4835 2.59056 0 0 1 0.441612 0.499341 0.103622 11.0403 12.4835 27.5906 0.144863 0.186172 -0.977217 1.32858 4.93762 7.94464 
2385 1 1 6.00141 10.2989 2.9697 0 0 1 0.240056 0.411956 0.118788 6.00141 10.2989 27.9697 -0.847842 -0.267575 0.678015 27.5758 23.1471 -15.8067 
7184 1 1 10.2852 2.93822 5.63688 1 0 0 0.411406 0.117529 0.225475 35.2852 2.93822 5.63688 0.0699165 -1.70414 -0.111522 -13.5422 0.556743 -9.29053 
7060 1 1 2.79027 9.04733 0.663718 1 0 0 0.111611 0.361893 0.0265487 27.7903 9.04733 0.663718 -1.1399 0.204025 0.444408 -11.5074 1.39637 6.81947 
2825 1 1 8.93147 1.28258 1.05098 0 0 1 0.357259 0.0513031 0.0420391 8.93147 1.28258 26.051 2.91823 0.315161 -0.489238 35.7041 18.1668 9.70517 
191 1 1 1.21156 5.62069 0.452812 0 0 0 0.0484624 0.224827 0.0181125 1.21156 5.62069 0.452812 -0.685694 0.34352 0.901961 -12.7574 -12.9575 -7.19475 
4035 1 1 9.69824 9.58075 4.70819 0 1 0 0.38793 0.38323 0.188328 9.69824 34.5807 4.70819 0.550824 0.120417 0.869142 -20.9793 6.24605 17.414 
3271 1 1 3.3755 6.6228 2.96643 0 0 1 0.13502 0.264912 0.118657 3.3755 6.6228 27.9664 0.492635 -0.3947 -0.796903 6.09863 0.592933 -12.8496 
870 1 1 5.38467 11.6465 4.42088 0 0 0 0.215387 0.465859 0.176835 5.38467 11.6465 4.42088 -0.595134 0.0291587 -2.00636 0.80656 -3.99609 4.87911 
6333 1 1 8.76177 12.4803 1.22511 0 0 1 0.350471 0.499214 0.0490044 8.76177 12.4803 26.2251 -0.95919 -0.320943 -0.493499 1.8304 47.145 15.8913 
636 1 1 4.12985 11.4145 3.98518 0 0 0 0.165194 0.456581 0.159407 4.12985 11.4145 3.98518 0.993429 0.705026 0.884651 -0.00598734 -8.85654 -12.5742 
6162 1 1 8.12125 9.76719 1.49372 0 0 1 0.32485 0.390688 0.0597487 8.12125 9.76719 26.4937 1.68588 0.445488 0.511023 14.1664 1.19908 13.852 
9561 1 1 8.55297 1.81294 1.89782 1 0 1 0.342119 0.0725176 0.0759127 33.553 1.81294 26.8978 1.69141 1.5843 -0.979432 -3.83491 6.8292 0.716962 
10002 1 1 12.461 5.53309 0.533467 0 0 1 0.498438 0.221323 0.0213387 12.461 5.53309 25.5335 -2.4848 0.758325 0.669504 -4.20883 29.9236 7.16237 
7173 1 1 9.2649 4.57782 4.63531 0 0 0 0.370596 0.183113 0.185413 9.2649 4.57782 4.63531 -0.275316 -0.982906 1.04145 -12.5709 46.701 19.2599 
10606 1 1 2.14893 11.1474 1.08861 1 0 0 0.0859571 0.445897 0.0435445 27.1489 11.1474 1.08861 -0.0990278 -0.461636 0.602678 0.0724999 5.02064 8.74016 
1799 1 1 11.616 5.88268 2.50704 0 0 0 0.464641 0.235307 0.100282 11.616 5.88268 2.50704 2.05988 0.000103347 -0.25295 4.31863 -14.6463 9.22908 
3458 1 1 4.20074 0.467382 1.43629 0 1 0 0.16803 0.0186953 0.0574517 4.20074 25.4674 1.43629 1.11509 -1.3174 0.221135 -16.3817 -23.1211 36.5044 
3863 1 1 10.6156 6.15452 1.58585 0 0 0 0.424623 0.246181 0.063434 10.6156 6.15452 1.58585 0.569341 1.22715 -1.3749 -8.64765 24.8864 -10.556 
309 1 1 4.74232 4.96244 0.552654 0 0 0 0.189693 0.198498 0.0221062 4.74232 4.96244 0.552654 -0.314209 -0.530432 1.30141 -5.95898 9.84625 -5.51975 
3254 1 1 1.77591 3.34417 2.9955 0 0 1 0.0710365 0.133767 0.11982 1.77591 3.34417 27.9955 -1.35163 -0.42211 -0.605214 18.8976 -27.6652 -4.17614 
10460 1 1 6.2168 12.3476 2.01574 0 0 0 0.248672 0.493904 0.0806297 6.2168 12.3476 2.01574 0.109095 0.93392 -0.812755 -1.22456 9.55633 8.5224 
7459 1 1 7.02016 0.876371 0.339304 0 0 0 0.280806 0.0350548 0.0135722 7.02016 0.876371 0.339304 0.460716 -1.19555 0.616543 7.85867 10.7326 9.6754 
4066 1 1 4.91035 10.5532 2.42353 0 0 0 0.196414 0.422129 0.0969412 4.91035 10.5532 2.42353 0.211222 0.474899 -0.485494 37.3275 -7.52193 -40.0446 
7549 1 1 10.5992 5.59711 3.96881 0 0 0 0.42397 0.223884 0.158752 10.5992 5.59711 3.96881 0.413217 0.612219 0.905971 -37.554 -14.386 22.6389 
2412 1 1 0.832674 9.91689 1.49152 0 0 1 0.0333069 0.396676 0.0596608 0.832674 9.91689 26.4915 -0.157329 1.20073 -0.285624 0.420999 0.119461 4.7162 
7090 1 1 0.682195 11.0963 2.76554 1 0 0 0.0272878 0.443852 0.110622 25.6822 11.0963 2.76554 0.357252 2.25168 -0.511957 0.391275 -18.3271 13.1175 
4022 1 1 5.43717 8.72496 3.67539 0 1 0 0.217487 0.348998 0.147015 5.43717 33.725 3.67539 -0.655757 -0.282927 -0.282313 2.14613 31.7363 -4.82317 
3371 1 1 10.765 10.4719 0.709745 0 0 1 0.430601 0.418878 0.0283898 10.765 10.4719 25.7097 -0.687261 0.01363 -1.7907 -26.4422 -7.86784 -0.180067 
3586 1 1 3.28281 6.46315 0.570256 0 1 0 0.131313 0.258526 0.0228102 3.28281 31.4631 0.570256 2.61412 1.19724 0.454127 8.62466 -6.21816 -1.4578 
9283 1 1 2.34267 3.47816 0.580281 1 0 1 0.0937068 0.139126 0.0232112 27.3427 3.47816 25.5803 2.45189 -1.03362 1.55753 2.79558 5.00315 -0.565274 
857 1 1 1.38591 10.6333 4.40603 0 0 0 0.0554365 0.425332 0.176241 1.38591 10.6333 4.40603 -0.299233 0.552279 -2.1599 -4.12348 -3.63885 -8.94104 
13054 1 1 0.181018 8.06214 4.98769 0 0 1 0.0072407 0.322485 0.199508 0.181018 8.06214 29.9877 -0.520007 -0.24508 0.970716 3.84293 6.1454 4.57932 
6790 1 1 11.2416 0.400022 3.75497 0 0 0 0.449663 0.0160009 0.150199 11.2416 0.400022 3.75497 -0.455701 -0.410678 -0.143124 -23.6569 9.45055 13.7364 
1349 1 1 6.83324 5.11228 0.700552 0 0 0 0.27333 0.204491 0.0280221 6.83324 5.11228 0.700552 -0.644312 -0.989534 0.285335 8.22034 16.9911 -5.23086 
6221 1 1 9.251 0.164424 3.02522 0 1 1 0.37004 0.00657696 0.121009 9.251 25.1644 28.0252 0.788928 0.725142 0.44194 -20.8195 8.07299 -70.9674 
13021 1 1 11.6814 4.3885 2.37957 0 1 1 0.467254 0.17554 0.0951827 11.6814 29.3885 27.3796 -0.351138 0.0307745 1.61525 25.7466 12.3106 -18.9151 
4767 1 1 1.01175 1.68167 2.71082 1 0 0 0.04047 0.067267 0.108433 26.0117 1.68167 2.71082 -0.850052 1.62924 -0.878268 -6.32953 -10.5623 4.17302 
303 1 1 12.1496 7.64939 1.18815 0 0 0 0.485985 0.305976 0.0475259 12.1496 7.64939 1.18815 -0.653106 -1.39731 -0.333707 15.3277 16.2756 10.8464 
616 1 1 12.3503 8.73635 2.04014 0 0 0 0.494013 0.349454 0.0816058 12.3503 8.73635 2.04014 1.21027 0.843088 -0.135912 15.0776 -4.99059 -2.33717 
12466 1 1 1.40227 3.0958 0.326979 1 1 1 0.0560906 0.123832 0.0130792 26.4023 28.0958 25.327 0.803873 -1.11265 -0.3093 -6.61869 40.5665 -1.4151 
4545 1 1 8.60816 5.16414 3.69095 0 0 0 0.344327 0.206566 0.147638 8.60816 5.16414 3.69095 -2.00893 -1.03492 -1.9671 -11.1982 17.6174 -23.1037 
9737 1 1 6.52921 8.33094 3.09396 0 0 1 0.261169 0.333238 0.123758 6.52921 8.33094 28.094 0.149481 -1.155 -0.320876 -15.001 2.05995 -4.8343 
3890 1 1 6.65348 9.1497 0.320424 0 0 0 0.266139 0.365988 0.012817 6.65348 9.1497 0.320424 0.79355 -0.212612 0.634765 -4.78067 -41.2634 31.5486 
3837 1 1 11.4882 8.26267 4.76378 0 0 0 0.459528 0.330507 0.190551 11.4882 8.26267 4.76378 -0.177104 0.633654 -0.447248 -56.9129 -35.7636 12.3292 
2794 1 1 5.10046 0.944551 1.25676 0 0 1 0.204018 0.037782 0.0502703 5.10046 0.944551 26.2568 1.30651 1.0742 0.697581 13.4283 4.59833 -12.3011 
13349 1 1 1.86926 1.57856 2.04677 1 1 1 0.0747706 0.0631424 0.0818708 26.8693 26.5786 27.0468 -1.22275 0.367625 0.0718999 4.7677 -3.24255 0.919576 
372 1 1 6.69654 10.4257 2.0965 0 0 0 0.267861 0.417028 0.0838598 6.69654 10.4257 2.0965 1.4189 -1.07581 0.891936 2.82778 -1.33568 -0.848481 
9982 1 1 12.0808 2.09882 5.49457 0 0 1 0.483232 0.083953 0.219783 12.0808 2.09882 30.4946 0.441674 -0.308311 0.233077 45.9878 66.3599 -6.68186 
5810 1 1 7.53812 4.93392 1.57016 0 1 1 0.301525 0.197357 0.0628065 7.53812 29.9339 26.5702 -0.240943 -0.269294 1.11349 -12.0651 4.32931 1.87133 
3157 1 1 2.17692 11.4173 3.01497 0 -1 1 0.0870769 0.456692 0.120599 2.17692 -13.5827 28.015 0.699761 0.195795 0.698281 4.37551 1.42677 0.776841 
2979 1 1 2.12597 2.23945 4.24754 0 0 1 0.0850389 0.089578 0.169902 2.12597 2.23945 29.2475 1.66414 0.864036 -0.701405 6.35356 -4.15146 -29.719 
11594 1 1 10.3288 10.812 2.50389 0 0 0 0.413151 0.43248 0.100156 10.3288 10.812 2.50389 0.195624 -0.396553 -0.165735 -6.65015 6.76099 -13.7641 
6559 1 1 2.97441 11.6438 2.08722 0 0 1 0.118976 0.465754 0.0834888 2.97441 11.6438 27.0872 -0.176332 -1.63173 1.67501 -9.04488 -8.3371 -2.58532 
2863 1 1 10.4175 8.04625 4.17912 0 0 1 0.416701 0.32185 0.167165 10.4175 8.04625 29.1791 -1.05636 1.3976 0.606168 4.90387 13.8906 4.90423 
8997 1 1 2.63413 11.1167 0.163031 1 0 1 0.105365 0.444669 0.00652124 27.6341 11.1167 25.163 0.286144 0.600389 1.74368 -0.881557 5.63325 -9.78038 
1356 1 1 0.908126 4.28321 4.47813 0 0 0 0.036325 0.171328 0.179125 0.908126 4.28321 4.47813 -0.492942 2.31091 0.889862 -3.57718 12.283 34.0191 
3753 1 1 3.07244 7.98161 4.64585 0 0 0 0.122898 0.319264 0.185834 3.07244 7.98161 4.64585 -0.263172 0.569644 0.764621 -4.44366 -22.8972 40.7048 
6324 1 1 2.17018 0.155567 3.62716 0 0 1 0.0868073 0.00622268 0.145087 2.17018 0.155567 28.6272 -0.0181762 -1.13601 -1.88756 16.9045 11.2112 -15.3612 
10851 1 1 7.949 12.2989 4.0972 0 0 0 0.31796 0.491956 0.163888 7.949 12.2989 4.0972 -0.0881672 -1.71555 -1.67228 2.16972 32.0134 -5.68481 
2029 1 1 5.28715 6.47226 3.31772 0 0 1 0.211486 0.25889 0.132709 5.28715 6.47226 28.3177 -0.479891 -1.25869 -0.685292 -0.789975 5.13761 -8.37545 
6892 1 1 0.667068 11.2859 1.09686 1 0 0 0.0266827 0.451437 0.0438744 25.6671 11.2859 1.09686 -1.03408 1.26589 1.0052 -12.7923 -2.80221 3.19575 
12768 1 1 9.85396 9.70538 0.78444 0 0 1 0.394158 0.388215 0.0313776 9.85396 9.70538 25.7844 1.12795 0.89583 0.329476 5.5303 62.0496 -1.85805 
11197 1 1 11.7392 3.6507 0.782191 0 1 0 0.469568 0.146028 0.0312876 11.7392 28.6507 0.782191 0.193714 -0.538704 -1.68866 -8.22305 -18.0364 -11.1793 
7300 1 1 11.8691 12.1088 4.38653 0 0 0 0.474763 0.484351 0.175461 11.8691 12.1088 4.38653 -0.07972 0.096362 0.213485 12.497 -17.8431 -9.13282 
7626 1 1 11.0123 5.0907 4.94031 0 0 0 0.440491 0.203628 0.197612 11.0123 5.0907 4.94031 -0.520803 -0.202708 0.329671 -5.2582 5.34093 19.313 
3323 1 1 8.1276 10.6614 0.874492 0 0 1 0.325104 0.426455 0.0349797 8.1276 10.6614 25.8745 0.708892 -1.00369 0.287786 14.9716 11.0903 41.3274 
2349 1 1 3.80772 7.33042 2.02808 0 0 1 0.152309 0.293217 0.0811234 3.80772 7.33042 27.0281 -0.697542 2.48763 -0.0289063 14.8513 35.8048 32.4958 
2939 1 1 12.1384 4.00161 4.00596 0 0 1 0.485535 0.160064 0.160238 12.1384 4.00161 29.006 0.000438941 -1.55422 -0.474879 26.0355 -5.8676 -20.8874 
2835 1 1 4.87551 12.3412 1.1293 0 0 1 0.19502 0.493648 0.045172 4.87551 12.3412 26.1293 -0.240393 -2.18738 0.399768 -21.4347 6.91845 1.12526 
4095 1 1 3.61334 6.3931 1.82536 0 0 0 0.144534 0.255724 0.0730143 3.61334 6.3931 1.82536 -0.757152 -0.0664687 0.337914 -22.0599 -35.0045 -14.036 
111 1 1 5.21201 9.86104 5.95603 0 0 0 0.20848 0.394441 0.238241 5.21201 9.86104 5.95603 -0.139746 -0.66933 0.504629 -31.7617 -13.134 4.67202 
3204 1 1 7.15287 8.52623 5.49576 0 0 1 0.286115 0.341049 0.21983 7.15287 8.52623 30.4958 1.51446 -0.484087 0.16543 -17.4328 11.9831 35.5077 
2769 1 1 10.1624 0.80192 0.0266327 0 0 1 0.406495 0.0320768 0.00106531 10.1624 0.80192 25.0266 -0.744459 0.491223 -0.0615076 12.5492 25.2537 55.7394 
3297 1 1 4.9977 12.4701 3.89783 0 0 1 0.199908 0.498803 0.155913 4.9977 12.4701 28.8978 -2.02234 -0.0939698 -0.110228 -2.01664 7.97857 -14.7051 
12363 1 1 1.35341 8.64429 2.56785 1 1 0 0.0541365 0.345772 0.102714 26.3534 33.6443 2.56785 -0.57389 0.457411 0.558969 3.31395 -7.37538 4.03636 
7641 1 1 12.159 10.8561 3.75455 0 0 0 0.48636 0.434244 0.150182 12.159 10.8561 3.75455 -2.13193 1.09649 -0.229246 12.0043 12.6964 4.04689 
1193 1 1 2.1156 7.4256 3.00235 0 0 0 0.084624 0.297024 0.120094 2.1156 7.4256 3.00235 -0.616497 -0.855567 -2.25342 -5.2499 -5.57251 2.83365 
7616 1 1 9.62394 7.70404 1.2097 0 0 0 0.384958 0.308161 0.0483878 9.62394 7.70404 1.2097 -0.626972 -0.932708 1.26024 -0.267569 26.0661 -9.44946 
817 1 1 3.15047 2.34082 4.09331 0 0 0 0.126019 0.0936328 0.163732 3.15047 2.34082 4.09331 0.270917 0.698033 -1.52807 5.2248 5.36517 -20.2463 
7952 1 1 1.8615 11.1313 5.21888 1 0 0 0.0744602 0.445253 0.208755 26.8615 11.1313 5.21888 1.20172 -1.50725 -0.525618 3.19836 -24.4152 -3.44897 
7525 1 1 4.01843 1.40397 2.65971 0 0 0 0.160737 0.0561587 0.106388 4.01843 1.40397 2.65971 1.44404 -0.0503698 -0.426674 19.2921 -8.54034 -6.70682 
547 1 1 9.95241 5.45248 4.85363 0 0 0 0.398096 0.218099 0.194145 9.95241 5.45248 4.85363 -0.145298 1.61957 1.2984 10.5994 -11.196 2.5491 
12692 1 1 1.0495 2.3147 0.820023 1 1 1 0.0419799 0.0925878 0.0328009 26.0495 27.3147 25.82 -1.4176 1.07281 -0.795454 -36.1191 -16.8179 25.5369 
7307 1 1 0.102541 1.04745 2.19581 1 0 0 0.00410165 0.041898 0.0878324 25.1025 1.04745 2.19581 0.104731 0.514983 1.00341 -4.02408 -25.4958 1.56282 
7083 1 1 0.0804167 5.72559 2.5607 1 0 0 0.00321667 0.229024 0.102428 25.0804 5.72559 2.5607 -0.00615473 0.633284 -1.19824 0.708011 6.02268 7.40695 
3607 1 1 0.568912 0.711026 0.151619 0 0 0 0.0227565 0.028441 0.00606474 0.568912 0.711026 0.151619 -0.274172 0.280312 0.349379 -3.78666 2.05745 11.0159 
6992 1 1 12.4197 5.68456 3.87079 0 0 0 0.496789 0.227382 0.154831 12.4197 5.68456 3.87079 0.529435 1.07123 -1.17897 -2.76114 -9.76168 13.5856 
9078 1 1 9.0257 7.36087 0.261045 0 0 1 0.361028 0.294435 0.0104418 9.0257 7.36087 25.261 1.09779 -0.824386 0.0125364 18.8909 -24.7928 26.3917 
3593 1 1 6.73805 3.28149 1.35934 0 1 0 0.269522 0.13126 0.0543737 6.73805 28.2815 1.35934 0.100204 1.19465 0.886425 -6.37222 -0.248702 6.07072 
2866 1 1 8.18066 5.88906 6.11736 0 0 1 0.327226 0.235563 0.244695 8.18066 5.88906 31.1174 -0.774006 0.420841 0.897365 34.6182 -10.8086 -33.3119 
7318 1 1 2.38876 12.2851 1.46411 1 0 0 0.0955503 0.491402 0.0585645 27.3888 12.2851 1.46411 -1.41491 0.136628 2.31727 8.0781 2.32335 -3.44626 
4465 1 1 10.6316 4.45291 2.11402 0 1 0 0.425262 0.178116 0.0845607 10.6316 29.4529 2.11402 -0.88524 -0.562748 -1.18615 -8.27864 5.33512 12.1818 
2655 1 1 3.97379 1.52164 1.49718 0 0 1 0.158952 0.0608655 0.0598872 3.97379 1.52164 26.4972 0.34588 1.27048 0.756071 21.8837 -4.64906 1.67165 
10036 1 1 0.144574 0.132133 1.15938 1 0 1 0.00578297 0.00528533 0.0463752 25.1446 0.132133 26.1594 -0.0703573 0.324407 -1.49378 -25.5749 10.7871 -1.68078 
1241 1 1 9.14534 5.8414 5.4265 0 0 0 0.365814 0.233656 0.21706 9.14534 5.8414 5.4265 0.471131 0.939609 -1.76462 -0.567545 -35.6464 -27.7278 
12257 1 1 12.1916 0.656974 0.844057 0 1 1 0.487666 0.026279 0.0337623 12.1916 25.657 25.8441 0.875139 0.00231032 0.486936 -2.4253 5.2904 0.554012 
11090 1 1 4.75427 11.7528 5.37164 1 0 0 0.190171 0.47011 0.214866 29.7543 11.7528 5.37164 -0.119026 -0.300321 1.10872 7.91694 2.62124 4.89167 
3401 1 1 7.07275 10.4886 1.01801 0 0 0 0.28291 0.419545 0.0407204 7.07275 10.4886 1.01801 1.35506 0.0355006 -0.261502 3.39178 -16.1127 -10.8005 
12202 1 1 6.67163 11.3697 1.29538 0 0 0 0.266865 0.454787 0.0518153 6.67163 11.3697 1.29538 -0.145086 0.891194 -0.178344 -6.54492 14.2142 15.8571 
6990 1 1 12.4611 6.76564 2.00704 0 0 0 0.498445 0.270625 0.0802814 12.4611 6.76564 2.00704 0.23916 -1.52014 -1.22176 7.58638 19.6872 16.9768 
245 1 1 9.34165 0.287865 3.96422 0 0 0 0.373666 0.0115146 0.158569 9.34165 0.287865 3.96422 -0.06151 -0.408652 1.0082 -11.2626 39.445 44.8524 
6521 1 1 3.14505 7.59829 2.79944 0 1 1 0.125802 0.303932 0.111977 3.14505 32.5983 27.7994 0.906554 -1.91884 1.29973 -23.4779 25.0156 -11.2407 
768 1 1 2.85914 4.71417 4.5563 0 0 0 0.114366 0.188567 0.182252 2.85914 4.71417 4.5563 0.382627 -0.239295 -0.103764 24.1807 -11.0212 26.4876 
1249 1 1 0.57575 11.7763 2.05032 0 0 0 0.02303 0.471051 0.0820129 0.57575 11.7763 2.05032 0.238196 -0.778201 1.25917 6.80585 10.4665 -33.7213 
497 1 1 10.0811 4.45101 3.0486 0 0 0 0.403245 0.17804 0.121944 10.0811 4.45101 3.0486 1.93147 -1.16644 0.182474 26.4845 -31.9475 5.38085 