ITEM: TIMESTEP
10000
ITEM: NUMBER OF ATOMS
13500
ITEM: BOX BOUNDS
0 25
0 25
0 25
ITEM: ATOMS id type mass x y z ix iy iz xs ys zs xu yu zu vx vy vz fx fy fz 
3246 1 1 1.47358 6.55403 0.205637 0 0 1 0.0589433 0.262161 0.00822549 1.47358 6.55403 25.2056 1.24782 0.2047 1.47929 -8.56554 9.23753 -2.4574 
69 1 1 3.13696 6.2943 1.29105 0 0 0 0.125478 0.251772 0.0516422 3.13696 6.2943 1.29105 0.13575 -0.794192 -0.781032 -24.1082 -12.693 25.5697 
488 1 1 1.05871 1.88252 1.86792 0 0 0 0.0423485 0.075301 0.074717 1.05871 1.88252 1.86792 0.64298 -1.48467 0.781401 9.99881 -0.809686 -6.77873 
4102 1 1 2.90209 11.0813 3.73167 0 0 0 0.116084 0.443251 0.149267 2.90209 11.0813 3.73167 0.115496 0.742124 -0.374134 6.34142 -24.0261 17.1471 
162 1 1 1.92849 9.99454 0.318433 0 0 0 0.0771396 0.399782 0.0127373 1.92849 9.99454 0.318433 0.135508 1.17381 -0.375591 8.31728 -4.07046 -5.14813 
923 1 1 8.89072 1.31713 4.77321 0 0 0 0.355629 0.0526852 0.190928 8.89072 1.31713 4.77321 -1.44565 -2.20423 0.0513368 38.8198 -37.7201 -32.3436 
914 1 1 8.66935 2.43201 4.18931 0 0 0 0.346774 0.0972803 0.167572 8.66935 2.43201 4.18931 -1.73695 0.445428 0.801263 -2.92565 -21.91 -3.38853 
4474 1 1 0.100335 1.14446 5.12902 0 1 0 0.00401338 0.0457786 0.205161 0.100335 26.1445 5.12902 0.0736802 1.00002 -1.06744 -6.34823 -14.3971 9.65375 
574 1 1 3.98145 11.802 4.88827 0 0 0 0.159258 0.472081 0.195531 3.98145 11.802 4.88827 -0.334626 -0.406718 0.213363 2.11749 -14.3388 -16.0113 
957 1 1 10.6717 1.48676 5.08406 0 0 0 0.426867 0.0594704 0.203363 10.6717 1.48676 5.08406 1.10136 -0.302196 0.705269 -2.62018 -17.7961 -10.7572 
1149 1 1 5.95183 0.295664 4.5888 0 0 0 0.238073 0.0118265 0.183552 5.95183 0.295664 4.5888 0.58069 0.663942 -0.388256 6.937 -16.0963 6.89664 
526 1 1 5.80863 2.51716 -0.0268515 0 0 0 0.232345 0.100687 -0.00107406 5.80863 2.51716 -0.0268515 -1.69179 0.228193 2.41815 0.863955 30.5374 66.9993 
135 1 1 7.44833 8.95184 0.818894 0 0 0 0.297933 0.358074 0.0327557 7.44833 8.95184 0.818894 -0.260131 -0.684541 2.05164 10.0366 -12.327 -19.1378 
4078 1 1 5.42456 10.2726 3.89343 0 0 0 0.216982 0.410906 0.155737 5.42456 10.2726 3.89343 0.428764 1.13355 -0.126573 3.57298 -38.1844 -27.3295 
48 1 1 10.7838 4.02053 2.79832 0 0 0 0.431353 0.160821 0.111933 10.7838 4.02053 2.79832 -1.36903 0.94409 -0.473085 10.2337 -14.7737 26.9083 
16 1 1 4.94471 2.2706 2.52751 0 0 0 0.197789 0.0908238 0.101101 4.94471 2.2706 2.52751 0.387021 -1.35901 0.933392 1.04863 1.82804 3.64712 
133 1 1 7.25663 4.9236 0.567554 0 0 0 0.290265 0.196944 0.0227022 7.25663 4.9236 0.567554 -0.190426 -1.67549 0.271054 -0.56998 -10.9145 -4.25064 
7130 1 1 11.0762 9.62094 4.29694 0 0 0 0.44305 0.384838 0.171878 11.0762 9.62094 4.29694 -1.99484 1.04171 0.920666 -17.3346 -39.8669 -9.14476 
3252 1 1 2.73745 3.99361 0.667021 0 0 1 0.109498 0.159744 0.0266808 2.73745 3.99361 25.667 0.00605504 1.06774 0.399635 15.475 -1.78389 13.4713 
4426 1 1 3.43403 0.14508 4.22387 0 1 0 0.137361 0.00580321 0.168955 3.43403 25.1451 4.22387 -0.869127 0.631747 0.170676 43.9603 21.5771 5.5691 
7482 1 1 0.0775753 3.83435 6.00058 1 0 0 0.00310301 0.153374 0.240023 25.0776 3.83435 6.00058 -0.58394 -1.58958 1.29036 -14.6913 -16.612 28.8578 
10590 1 1 3.66723 11.1112 2.89313 1 0 0 0.146689 0.444447 0.115725 28.6672 11.1112 2.89313 -0.735031 0.479556 -0.0157465 -14.9321 -5.70647 1.86481 
3668 1 1 10.1783 12.33 3.75829 0 0 0 0.407132 0.493201 0.150332 10.1783 12.33 3.75829 0.0396607 -0.56285 1.02288 -12.712 -9.34537 -22.5901 
2768 1 1 4.18339 3.43128 0.531552 0 0 1 0.167336 0.137251 0.0212621 4.18339 3.43128 25.5316 -0.111693 -0.751606 0.338195 16.5861 -3.24693 56.144 
3799 1 1 0.695582 0.378532 4.8828 0 1 0 0.0278233 0.0151413 0.195312 0.695582 25.3785 4.8828 0.684138 0.0333757 -0.894502 3.53054 -2.57679 -47.408 
691 1 1 0.925108 0.499204 3.69867 0 0 0 0.0370043 0.0199682 0.147947 0.925108 0.499204 3.69867 0.150006 -0.720636 -2.66542 -27.0725 16.379 -1.27815 
467 1 1 5.9519 3.81313 3.24347 0 0 0 0.238076 0.152525 0.129739 5.9519 3.81313 3.24347 -0.415129 1.05745 -0.410862 -20.6692 4.77779 17.2035 
3863 1 1 8.71331 12.3073 3.44624 0 0 0 0.348533 0.492293 0.13785 8.71331 12.3073 3.44624 -0.42434 1.98688 0.0262785 -1.11026 -0.456249 -1.32814 
660 1 1 10.3117 10.3852 4.69618 0 0 0 0.412468 0.415407 0.187847 10.3117 10.3852 4.69618 1.33698 0.981924 -0.0113421 -17.4916 -15.2649 10.7719 
430 1 1 9.27082 9.33306 1.28745 0 0 0 0.370833 0.373323 0.0514979 9.27082 9.33306 1.28745 1.52935 -0.56369 0.0660502 -6.18258 -24.1761 0.159362 
18 1 1 11.3833 1.89463 2.99589 0 0 0 0.45533 0.0757853 0.119835 11.3833 1.89463 2.99589 -0.334919 -0.251911 -0.030935 -9.67055 -14.4616 -5.33273 
4488 1 1 7.94293 0.0231098 5.64318 0 1 0 0.317717 0.00092439 0.225727 7.94293 25.0231 5.64318 -0.967587 -1.2537 -0.436717 8.93621 10.769 -26.6305 
7353 1 1 11.5902 11.1539 1.25027 0 0 0 0.463606 0.446156 0.0500107 11.5902 11.1539 1.25027 0.30014 -0.743546 -0.0825631 -5.24059 7.70784 9.62047 
7347 1 1 0.932412 6.11606 3.5905 1 0 0 0.0372965 0.244643 0.14362 25.9324 6.11606 3.5905 -1.47672 0.971606 1.06558 -5.71107 -8.80065 20.6614 
216 1 1 5.72788 12.0797 1.82085 0 0 0 0.229115 0.483186 0.0728339 5.72788 12.0797 1.82085 -0.0213236 -0.0874116 -2.72797 -13.4199 -8.50571 -11.5911 
248 1 1 11.7893 5.34026 1.30513 0 0 0 0.47157 0.21361 0.0522051 11.7893 5.34026 1.30513 -0.633472 -1.70557 0.359389 -7.29272 11.7877 12.399 
1258 1 1 4.39321 7.34644 3.63685 0 0 0 0.175728 0.293857 0.145474 4.39321 7.34644 3.63685 0.292883 0.173682 0.47354 -19.325 -9.51356 -7.77147 
460 1 1 6.38557 0.437962 1.87678 0 0 0 0.255423 0.0175185 0.0750711 6.38557 0.437962 1.87678 0.413464 -2.08666 -0.0360702 -9.27968 -10.0471 10.4975 
7514 1 1 1.78326 5.19825 5.21476 1 0 0 0.0713304 0.20793 0.20859 26.7833 5.19825 5.21476 0.417974 0.176314 0.796288 -6.92664 -17.2167 -1.07648 
3510 1 1 7.65977 11.8 0.760265 0 0 0 0.306391 0.472001 0.0304106 7.65977 11.8 0.760265 -0.297539 -1.33269 -1.85699 -18.8648 -5.71893 -10.0573 
260 1 1 1.39127 2.98709 1.21953 0 0 0 0.0556507 0.119484 0.0487813 1.39127 2.98709 1.21953 1.7852 0.644042 -1.01692 -10.2629 -25.7523 -7.92483 
7189 1 1 11.3011 12.1692 5.33472 0 0 0 0.452042 0.486769 0.213389 11.3011 12.1692 5.33472 0.167406 1.60834 0.98019 36.5338 0.813037 39.4162 
3807 1 1 4.83078 1.99413 1.38295 0 1 0 0.193231 0.079765 0.0553179 4.83078 26.9941 1.38295 0.0744191 -0.478769 -0.240097 -4.50484 -34.5001 10.0198 
4516 1 1 2.9906 11.2589 4.74909 0 0 0 0.119624 0.450356 0.189964 2.9906 11.2589 4.74909 0.0676948 0.205615 -1.03132 2.10556 29.5938 12.8306 
929 1 1 8.17538 1.82539 5.10302 0 0 0 0.327015 0.0730158 0.204121 8.17538 1.82539 5.10302 -0.266971 -0.531185 0.547257 -33.1192 -3.67716 24.4623 
46 1 1 5.962 5.35035 0.0997296 0 0 0 0.23848 0.214014 0.00398919 5.962 5.35035 0.0997296 1.97867 0.145864 -0.662928 -15.4745 -24.1558 13.0791 
1119 1 1 7.87237 11.4637 3.647 0 0 0 0.314895 0.458548 0.14588 7.87237 11.4637 3.647 0.495952 -1.70516 3.05778 20.6248 3.66763 -17.6173 
525 1 1 9.22085 4.91093 0.322492 0 0 0 0.368834 0.196437 0.0128997 9.22085 4.91093 0.322492 -1.34935 -0.343756 0.867511 -0.0020264 9.66051 1.24132 
72 1 1 2.979 4.99361 0.856736 0 0 0 0.11916 0.199745 0.0342694 2.979 4.99361 0.856736 -0.936782 -0.157122 -0.153936 -8.31817 -11.7079 17.1331 
772 1 1 0.424298 1.18477 2.4062 0 0 0 0.0169719 0.0473909 0.0962478 0.424298 1.18477 2.4062 0.120249 -1.26958 -0.30483 32.1927 -2.25218 -68.9921 
4207 1 1 9.79892 0.218126 0.467099 0 1 0 0.391957 0.00872503 0.018684 9.79892 25.2181 0.467099 -0.653409 0.272991 0.00534624 21.6957 9.1951 -5.67404 
937 1 1 3.47617 0.0749176 5.6562 0 0 0 0.139047 0.0029967 0.226248 3.47617 0.0749176 5.6562 0.723798 -0.162066 1.13624 14.874 -12.4134 12.4837 
3821 1 1 8.13892 1.94983 3.16458 0 1 0 0.325557 0.0779931 0.126583 8.13892 26.9498 3.16458 -1.41767 2.24404 -0.289219 22.6887 16.5495 -10.8356 
4075 1 1 4.56791 12.2259 4.10374 0 0 0 0.182716 0.489037 0.164149 4.56791 12.2259 4.10374 0.277647 -1.66497 -0.428171 -0.167014 -0.264453 -5.14555 
147 1 1 8.91166 3.92923 0.147745 0 0 0 0.356466 0.157169 0.00590981 8.91166 3.92923 0.147745 -0.287425 0.00515596 0.855052 35.8405 6.17759 2.27308 
692 1 1 7.77699 0.926526 4.63655 0 0 0 0.31108 0.037061 0.185462 7.77699 0.926526 4.63655 0.177043 -0.825845 -0.389411 0.0329255 -4.518 25.036 
655 1 1 12.3491 8.70936 4.52338 0 0 0 0.493962 0.348374 0.180935 12.3491 8.70936 4.52338 0.875398 -0.415322 -0.237911 11.7346 -2.4884 9.24608 
3605 1 1 5.45707 9.8185 2.79088 0 0 0 0.218283 0.39274 0.111635 5.45707 9.8185 2.79088 2.46151 0.839737 -2.47164 24.9587 16.4303 13.2013 
463 1 1 1.5069 0.79409 2.73383 0 0 0 0.060276 0.0317636 0.109353 1.5069 0.79409 2.73383 -0.194099 -0.231685 -1.39648 6.38213 17.7967 1.91113 
3819 1 1 10.764 0.583779 4.35482 0 1 0 0.430559 0.0233512 0.174193 10.764 25.5838 4.35482 -0.0800995 -0.0206764 0.0770172 5.24599 6.80558 -2.4613 
1110 1 1 10.0757 12.1195 5.48353 0 0 0 0.403028 0.484781 0.219341 10.0757 12.1195 5.48353 0.0818361 0.325353 0.475285 -12.2838 -17.3374 18.7856 
4032 1 1 7.62185 0.285216 0.146203 0 1 0 0.304874 0.0114086 0.00584812 7.62185 25.2852 0.146203 0.566368 1.29415 -1.2671 -1.68814 8.24911 -8.19401 
2978 1 1 10.1609 4.36343 0.0928708 0 0 1 0.406435 0.174537 0.00371483 10.1609 4.36343 25.0929 0.489438 -1.80505 -0.421611 -6.02318 -10.6532 8.17914 
233 1 1 5.59053 2.54384 1.61815 0 0 0 0.223621 0.101754 0.064726 5.59053 2.54384 1.61815 -1.95011 -2.31296 -0.663733 5.1814 38.0218 17.3148 
489 1 1 0.814191 1.52524 3.29097 0 0 0 0.0325677 0.0610095 0.131639 0.814191 1.52524 3.29097 0.485506 0.0164607 1.00017 -36.588 -9.17125 -18.2011 
7321 1 1 12.0978 9.96149 3.14409 0 0 0 0.483913 0.39846 0.125764 12.0978 9.96149 3.14409 0.216069 -0.558714 -0.510746 6.56315 -1.73996 -15.7368 
67 1 1 2.19943 0.620818 1.81518 0 0 0 0.0879773 0.0248327 0.0726072 2.19943 0.620818 1.81518 -0.594087 -0.345822 0.637421 -0.682473 26.6872 14.2061 
707 1 1 0.217397 1.39188 4.09785 0 0 0 0.00869586 0.0556753 0.163914 0.217397 1.39188 4.09785 1.11818 -0.917987 -0.341415 -0.416729 17.8198 8.17374 
6981 1 1 11.0349 2.0097 1.96492 0 0 0 0.441397 0.0803878 0.0785967 11.0349 2.0097 1.96492 -0.85602 1.16296 1.42642 7.28086 2.6429 -0.184683 
222 1 1 7.80888 11.6208 2.14785 0 0 0 0.312355 0.464832 0.085914 7.80888 11.6208 2.14785 0.138167 0.858257 -1.28835 19.0543 6.13472 -17.7323 
7123 1 1 1.24482 6.08461 2.02763 1 0 0 0.0497926 0.243384 0.0811053 26.2448 6.08461 2.02763 0.476115 1.09992 1.36466 32.81 -47.1951 -46.4006 
4030 1 1 6.49377 2.67531 2.11269 0 1 0 0.259751 0.107012 0.0845075 6.49377 27.6753 2.11269 1.23284 -1.12512 -0.629572 -24.4147 -8.97347 17.1021 
217 1 1 1.37484 9.15245 0.79965 0 0 0 0.0549936 0.366098 0.031986 1.37484 9.15245 0.79965 0.717234 -1.43687 0.0662687 12.3525 -14.9135 1.93468 
95 1 1 2.13661 5.15617 2.31872 0 0 0 0.0854644 0.206247 0.0927487 2.13661 5.15617 2.31872 -0.320227 -1.35805 0.189073 28.1147 -15.2973 -32.5095 
75 1 1 9.87374 5.39757 2.44537 0 0 0 0.394949 0.215903 0.0978148 9.87374 5.39757 2.44537 0.0188267 0.142858 1.59461 -2.40345 -2.77426 8.52704 
76 1 1 5.6284 4.03469 0.47213 0 0 0 0.225136 0.161388 0.0188852 5.6284 4.03469 0.47213 -1.0602 0.0290101 0.494404 6.71331 -6.29397 14.542 
87 1 1 9.77155 8.24309 0.480928 0 0 0 0.390862 0.329723 0.0192371 9.77155 8.24309 0.480928 1.28067 0.693223 0.422754 -31.7184 13.7638 -5.92265 
7191 1 1 12.2333 10.8729 5.53301 0 0 0 0.489333 0.434917 0.22132 12.2333 10.8729 5.53301 0.918035 0.112164 -0.854526 -30.7172 -2.50963 23.5655 
149 1 1 11.1575 8.2186 1.56232 0 0 0 0.4463 0.328744 0.0624928 11.1575 8.2186 1.56232 -0.649619 -0.98515 0.632548 -20.3416 -10.9432 25.3938 
3333 1 1 2.98652 10.5306 0.852306 0 0 1 0.119461 0.421223 0.0340922 2.98652 10.5306 25.8523 1.33396 -1.08983 0.938146 -65.5549 16.1583 9.10811 
6959 1 1 1.85321 11.471 1.53921 1 0 0 0.0741286 0.45884 0.0615685 26.8532 11.471 1.53921 1.55263 0.625782 0.909173 20.1609 2.37176 17.3045 
491 1 1 6.76432 1.06961 4.29246 0 0 0 0.270573 0.0427843 0.171698 6.76432 1.06961 4.29246 -0.738891 -2.23692 0.102362 -8.50267 9.13738 8.06817 
10370 1 1 11.7989 12.1422 1.86942 0 0 0 0.471957 0.48569 0.0747768 11.7989 12.1422 1.86942 0.443954 -0.821279 -1.90696 40.4029 -29.5938 30.9756 
84 1 1 9.09661 4.37696 4.14317 0 0 0 0.363864 0.175078 0.165727 9.09661 4.37696 4.14317 1.50578 2.60403 -0.709231 11.615 4.27393 -2.21269 
7322 1 1 10.5761 9.23924 3.41495 0 0 0 0.423045 0.369569 0.136598 10.5761 9.23924 3.41495 0.659658 0.479624 -0.578258 -9.6646 4.72817 -3.9308 
3848 1 1 5.3569 11.6364 4.70679 0 0 0 0.214276 0.465454 0.188272 5.3569 11.6364 4.70679 1.25092 -1.4963 1.21473 10.9601 36.5672 -31.7385 
6874 1 1 11.873 10.9116 0.346314 0 0 0 0.474918 0.436462 0.0138525 11.873 10.9116 0.346314 -2.85425 -1.06823 0.275907 47.5037 -35.6672 -38.2632 
7634 1 1 3.26961 10.6323 5.74349 1 0 0 0.130784 0.425291 0.229739 28.2696 10.6323 5.74349 1.28167 1.48563 0.234027 7.34231 -6.24972 -15.3944 
4094 1 1 11.331 11.528 3.60627 0 0 0 0.453238 0.461121 0.144251 11.331 11.528 3.60627 -0.922189 -1.20202 0.56417 -13.2673 -23.8337 35.3122 
2975 1 1 10.421 1.46984 0.7143 0 0 1 0.416841 0.0587935 0.028572 10.421 1.46984 25.7143 -0.520803 -1.03259 -1.26195 -88.8476 -34.2605 -20.5178 
4099 1 1 2.98569 12.3845 4.85014 0 0 0 0.119428 0.495381 0.194006 2.98569 12.3845 4.85014 0.311733 -0.54193 -0.0933532 23.7108 -25.282 -28.4351 
1232 1 1 7.01409 4.36396 4.434 0 0 0 0.280564 0.174559 0.17736 7.01409 4.36396 4.434 0.0162382 0.160132 0.957842 -29.3923 -35.3372 8.65874 
45 1 1 7.96022 4.13812 0.271427 0 0 0 0.318409 0.165525 0.0108571 7.96022 4.13812 0.271427 2.1651 1.239 1.65398 -24.9452 14.4565 -8.72716 
532 1 1 10.7811 5.00886 3.29553 0 0 0 0.431243 0.200354 0.131821 10.7811 5.00886 3.29553 -0.563021 -0.20832 -0.0930888 -26.6875 6.04146 -40.186 
3643 1 1 7.36023 11.0805 0.00287737 0 0 0 0.294409 0.443219 0.000115095 7.36023 11.0805 0.00287737 -0.865144 -0.427284 0.404518 24.8929 41.3711 20.0614 
7351 1 1 8.12181 10.0229 1.7877 0 0 0 0.324872 0.400917 0.0715082 8.12181 10.0229 1.7877 0.312015 -0.719748 0.1701 -6.57396 10.1209 -22.9374 
177 1 1 12.4216 9.19647 2.34537 0 0 0 0.496864 0.367859 0.0938148 12.4216 9.19647 2.34537 0.770015 1.81215 0.282648 6.43391 58.04 16.4357 
452 1 1 2.56026 0.625349 3.15373 0 0 0 0.102411 0.025014 0.126149 2.56026 0.625349 3.15373 0.431029 0.0312518 -0.00719546 -2.09017 -21.5178 -27.0185 
3593 1 1 6.93345 1.51833 2.18589 0 1 0 0.277338 0.0607334 0.0874356 6.93345 26.5183 2.18589 -1.59168 0.065013 -0.330836 -1.12997 -0.0314751 17.5879 
111 1 1 8.22144 5.9376 1.58031 0 0 0 0.328857 0.237504 0.0632123 8.22144 5.9376 1.58031 -1.75036 0.82502 1.23965 12.9693 6.78728 6.14388 
7327 1 1 10.0698 7.62051 2.06449 0 0 0 0.402791 0.304821 0.0825797 10.0698 7.62051 2.06449 0.85918 1.09307 0.689889 -12.3163 -15.3137 -15.503 
102 1 1 4.88684 3.9117 1.25239 0 0 0 0.195474 0.156468 0.0500956 4.88684 3.9117 1.25239 0.0405479 1.34828 -0.623628 -9.07413 8.89321 -6.28393 
7184 1 1 1.81247 9.29617 3.23542 1 0 0 0.0724989 0.371847 0.129417 26.8125 9.29617 3.23542 0.229065 1.99656 0.423226 23.1519 -2.34442 93.1813 
3625 1 1 2.77219 11.0619 2.25587 0 0 0 0.110888 0.442474 0.0902346 2.77219 11.0619 2.25587 -0.0887796 -0.555417 -0.652554 27.7599 29.9589 -12.4847 
7097 1 1 10.693 6.79077 1.47449 0 0 0 0.427721 0.271631 0.0589796 10.693 6.79077 1.47449 -0.938996 0.555101 0.626843 17.6715 -7.47977 33.4494 
106 1 1 4.79704 5.23948 0.332804 0 0 0 0.191881 0.209579 0.0133122 4.79704 5.23948 0.332804 -1.9167 -1.17698 -1.80638 7.35472 5.7676 -18.696 
570 1 1 12.3776 1.63462 4.20318 0 0 0 0.495104 0.0653849 0.168127 12.3776 1.63462 4.20318 -1.6164 -1.19077 -0.250633 4.30504 2.67598 -2.0758 
3775 1 1 10.1883 1.64738 2.91907 0 1 0 0.407533 0.0658951 0.116763 10.1883 26.6474 2.91907 -0.421865 -1.49633 0.108697 -0.466973 20.2872 17.772 
999 1 1 6.55123 8.96533 5.937 0 0 0 0.262049 0.358613 0.23748 6.55123 8.96533 5.937 -0.127087 0.0612067 -1.20323 -12.9821 -25.4773 20.724 
337 1 1 10.881 5.78882 2.03966 0 0 0 0.435239 0.231553 0.0815863 10.881 5.78882 2.03966 -0.290888 2.30342 2.08084 7.7794 0.640076 10.6849 
7962 1 1 0.978172 4.55731 4.64273 1 0 0 0.0391269 0.182293 0.185709 25.9782 4.55731 4.64273 -2.15878 1.9962 0.371288 15.6221 32.4518 49.3648 
572 1 1 1.37554 4.38084 2.90837 0 0 0 0.0550214 0.175234 0.116335 1.37554 4.38084 2.90837 -0.223236 -1.15907 0.727993 30.4071 -1.68935 -7.82984 
113 1 1 9.36957 6.96288 0.125588 0 0 0 0.374783 0.278515 0.00502351 9.36957 6.96288 0.125588 -0.996908 0.778152 -0.319009 -0.206219 -5.90417 3.39522 
1007 1 1 7.06942 4.73065 6.13433 0 0 0 0.282777 0.189226 0.245373 7.06942 4.73065 6.13433 -2.35456 0.177394 1.45366 9.39627 -17.6699 -3.40821 
788 1 1 7.06805 3.43044 1.73438 0 0 0 0.282722 0.137217 0.0693752 7.06805 3.43044 1.73438 0.413865 0.045155 2.01791 -9.1462 24.3189 -4.35056 
3298 1 1 11.9595 9.62883 1.26455 0 0 1 0.47838 0.385153 0.0505818 11.9595 9.62883 26.2645 -0.123599 -1.31302 0.444629 -3.76695 9.36754 6.50078 
117 1 1 8.80301 8.3123 2.75222 0 0 0 0.35212 0.332492 0.110089 8.80301 8.3123 2.75222 -1.41939 -0.0757236 -1.16082 5.58189 15.7469 33.2124 
118 1 1 9.55267 2.07717 4.84734 0 0 0 0.382107 0.0830869 0.193893 9.55267 2.07717 4.84734 1.37796 -0.299607 -2.29541 -9.34912 52.7253 22.7451 
41 1 1 4.70986 2.23243 0.439856 0 0 0 0.188394 0.0892971 0.0175943 4.70986 2.23243 0.439856 0.665594 0.0525235 0.387713 -5.50498 5.27955 -43.4828 
31 1 1 1.62633 1.70339 0.73095 0 0 0 0.065053 0.0681355 0.029238 1.62633 1.70339 0.73095 -2.0819 0.79487 0.53314 -4.51712 -0.138576 8.39713 
7549 1 1 10.8462 6.62131 4.22081 0 0 0 0.433847 0.264853 0.168832 10.8462 6.62131 4.22081 -2.75885 -0.269853 0.577943 10.175 14.9457 -1.933 
366 1 1 12.3784 7.79236 3.61495 0 0 0 0.495136 0.311694 0.144598 12.3784 7.79236 3.61495 0.0614769 -2.32084 -1.22928 0.182754 -11.8053 -6.0584 
10364 1 1 1.59795 8.25276 2.34006 1 0 0 0.0639179 0.33011 0.0936024 26.5979 8.25276 2.34006 0.719343 -1.44536 0.0736868 6.64936 8.83428 24.303 
7157 1 1 9.81412 8.95938 2.37117 0 0 0 0.392565 0.358375 0.0948468 9.81412 8.95938 2.37117 0.0764122 0.769849 0.540697 -7.73957 4.29017 2.41894 
92 1 1 0.889643 4.7715 0.59501 0 0 0 0.0355857 0.19086 0.0238004 0.889643 4.7715 0.59501 -0.79135 0.450326 -2.12897 -10.5206 -6.80731 -5.88557 
541 1 1 0.193594 4.30436 4.07851 0 0 0 0.00774376 0.172174 0.16314 0.193594 4.30436 4.07851 -0.088143 -1.02918 -0.177138 -14.9244 5.47077 -30.4531 
33 1 1 1.76119 3.94 0.342751 0 0 0 0.0704478 0.1576 0.01371 1.76119 3.94 0.342751 -1.39275 -1.24304 1.45489 1.20783 3.2536 3.46009 
3873 1 1 3.35301 12.0426 2.37461 0 0 0 0.13412 0.481703 0.0949845 3.35301 12.0426 2.37461 -0.194114 -0.140436 -0.455061 30.8867 -14.9277 -1.0681 
333 1 1 7.67148 7.69429 0.425805 0 0 0 0.306859 0.307772 0.0170322 7.67148 7.69429 0.425805 0.190944 -0.442565 0.927246 4.41285 16.8184 4.2246 
3164 1 1 4.90712 6.0873 0.789494 0 0 1 0.196285 0.243492 0.0315798 4.90712 6.0873 25.7895 -0.561853 -2.08826 -0.699424 -22.0723 9.93802 1.27574 
19 1 1 9.36975 1.21862 0.545916 0 0 0 0.37479 0.0487449 0.0218366 9.36975 1.21862 0.545916 -1.00578 -1.16988 0.508549 7.94384 8.63817 2.90445 
250 1 1 9.81371 0.591862 3.42089 0 0 0 0.392548 0.0236745 0.136836 9.81371 0.591862 3.42089 2.18097 1.54334 0.351421 -3.2217 3.09551 33.7502 
7288 1 1 2.47958 6.27808 2.29788 1 0 0 0.0991833 0.251123 0.0919151 27.4796 6.27808 2.29788 0.318373 -0.668528 -0.844729 -5.78101 -3.31375 -6.94118 
3797 1 1 2.37155 1.53567 2.5779 0 1 0 0.0948619 0.0614266 0.103116 2.37155 26.5357 2.5779 -1.21199 -0.89666 -0.75639 1.57949 5.63946 0.0450388 
3327 1 1 12.0938 10.588 1.97027 0 0 1 0.483752 0.423519 0.0788109 12.0938 10.588 26.9703 -0.79536 0.686476 1.5022 6.35879 -15.864 1.05432 
667 1 1 5.57963 12.125 3.59688 0 0 0 0.223185 0.485001 0.143875 5.57963 12.125 3.59688 0.0210964 0.272282 -1.693 -11.369 13.7575 69.3726 
7651 1 1 10.2181 5.81999 4.27221 0 0 0 0.408723 0.2328 0.170888 10.2181 5.81999 4.27221 -0.0254933 0.800054 0.085745 -4.97931 -11.4834 -0.0776645 
7709 1 1 0.0319025 3.9447 5.03016 1 0 0 0.0012761 0.157788 0.201207 25.0319 3.9447 5.03016 0.0407945 3.17848 1.24381 -5.61208 4.37734 -27.1274 
11 1 1 2.31979 2.14202 0.0759906 0 0 0 0.0927916 0.0856807 0.00303963 2.31979 2.14202 0.0759906 0.606912 0.0577979 -1.54156 11.1321 2.11901 -3.79694 
7066 1 1 9.60502 4.63409 3.22711 0 0 0 0.384201 0.185364 0.129084 9.60502 4.63409 3.22711 -0.240524 0.783266 -1.08919 3.8253 0.316221 -3.9057 
77 1 1 5.09255 5.54884 2.30584 0 0 0 0.203702 0.221954 0.0922337 5.09255 5.54884 2.30584 0.410897 0.570598 0.657942 -40.3108 21.5312 -0.884585 
481 1 1 2.24972 2.5326 4.23261 0 0 0 0.0899889 0.101304 0.169304 2.24972 2.5326 4.23261 2.14584 0.601438 -1.01668 13.5999 -2.88679 -22.2766 
740 1 1 1.90986 0.727539 4.01823 0 0 0 0.0763945 0.0291016 0.160729 1.90986 0.727539 4.01823 2.88271 0.370787 -0.457577 -10.4171 3.54846 7.7865 
419 1 1 8.48387 12.0175 1.28721 0 0 0 0.339355 0.480702 0.0514884 8.48387 12.0175 1.28721 0.423137 -0.458995 0.256968 5.89074 8.23297 11.0371 
7230 1 1 1.38017 2.94727 3.55257 1 0 0 0.055207 0.117891 0.142103 26.3802 2.94727 3.55257 -0.552539 1.46021 1.32828 -1.77243 -19.9175 13.9749 
15 1 1 2.45237 0.829931 0.333966 0 0 0 0.0980949 0.0331972 0.0133587 2.45237 0.829931 0.333966 -1.05988 1.38065 1.04547 8.09416 3.80685 22.1253 
10326 1 1 11.9913 1.04026 0.394166 0 1 0 0.479651 0.0416104 0.0157666 11.9913 26.0403 0.394166 -1.20438 -1.31738 -0.582787 8.39937 8.69081 -2.47516 
148 1 1 9.75196 9.42536 4.40057 0 0 0 0.390078 0.377015 0.176023 9.75196 9.42536 4.40057 -0.729745 -1.19379 0.351055 -25.4719 35.9979 6.04297 
104 1 1 7.33641 6.28759 1.94361 0 0 0 0.293457 0.251504 0.0777443 7.33641 6.28759 1.94361 -0.60081 -0.492278 0.162755 -33.2304 11.0757 -20.4733 
757 1 1 11.3754 0.523923 5.38407 0 0 0 0.455015 0.0209569 0.215363 11.3754 0.523923 5.38407 0.73849 1.47758 -0.0705956 -11.0832 -7.57143 -30.3019 
1327 1 1 10.7318 11.2559 5.84267 0 0 0 0.429272 0.450236 0.233707 10.7318 11.2559 5.84267 -1.49764 -0.854085 0.181211 -14.7769 -3.96179 -9.68597 
379 1 1 2.06896 7.90469 0.547107 0 0 0 0.0827584 0.316188 0.0218843 2.06896 7.90469 0.547107 1.04626 2.65578 0.351078 -0.628207 10.0218 -1.68737 
7004 1 1 1.34842 0.610481 0.698706 1 0 0 0.0539368 0.0244193 0.0279483 26.3484 0.610481 0.698706 -0.353491 -1.39956 0.194487 7.03496 8.35558 -11.2224 
3365 1 1 4.97458 10.0868 0.280873 0 0 1 0.198983 0.403472 0.0112349 4.97458 10.0868 25.2809 0.0655894 0.342872 -0.227517 -21.6882 -43.8914 11.4109 
622 1 1 10.1874 11.4823 2.24128 0 0 0 0.407497 0.459292 0.0896512 10.1874 11.4823 2.24128 0.010019 -0.836764 1.24968 -40.9707 -30.3869 -23.8476 
7683 1 1 11.1656 4.32806 3.89746 0 0 0 0.446625 0.173123 0.155899 11.1656 4.32806 3.89746 -0.626418 1.69772 -1.08211 22.9294 12.9244 19.0786 
364 1 1 10.0502 10.8277 0.380039 0 0 0 0.402009 0.433108 0.0152016 10.0502 10.8277 0.380039 0.295043 -0.984628 0.0520371 -13.8126 -11.2945 30.3937 
818 1 1 12.1793 0.847722 5.89254 0 0 0 0.48717 0.0339089 0.235701 12.1793 0.847722 5.89254 -0.076526 -0.68358 1.71746 -20.9988 -7.73834 47.0152 
4033 1 1 4.61181 1.17854 2.14726 0 1 0 0.184472 0.0471415 0.0858904 4.61181 26.1785 2.14726 0.602482 0.0225909 -0.201693 19.6296 37.3321 34.9823 
81 1 1 8.96988 2.94664 0.413598 0 0 0 0.358795 0.117866 0.0165439 8.96988 2.94664 0.413598 2.41447 -0.880324 0.418424 -1.10605 -12.8498 8.57623 
3568 1 1 9.42728 2.41454 2.55116 0 1 0 0.377091 0.0965817 0.102046 9.42728 27.4145 2.55116 0.265866 0.454263 -0.167066 11.3461 -1.39096 -18.9558 
3630 1 1 6.95124 10.5248 4.44506 0 0 0 0.27805 0.420993 0.177802 6.95124 10.5248 4.44506 -0.083126 0.124549 -0.608413 1.50364 20.6223 22.4352 
3845 1 1 1.98628 11.9369 3.86637 0 0 0 0.0794511 0.477476 0.154655 1.98628 11.9369 3.86637 -0.589645 -1.23783 0.290786 11.8545 1.84119 -27.3237 
437 1 1 1.25117 12.3721 1.9088 0 0 0 0.0500468 0.494884 0.0763519 1.25117 12.3721 1.9088 0.527476 0.0394395 -0.876275 11.8343 -0.0875732 1.61423 
3362 1 1 0.226371 12.1951 1.84762 0 0 1 0.00905486 0.487805 0.073905 0.226371 12.1951 26.8476 -0.414333 0.494978 0.727173 -26.2769 -1.50859 -41.1912 
166 1 1 7.50665 8.8441 1.85925 0 0 0 0.300266 0.353764 0.0743702 7.50665 8.8441 1.85925 1.07519 0.348082 1.25833 -10.9826 -6.38981 -29.6074 
109 1 1 8.63179 4.02342 2.95115 0 0 0 0.345272 0.160937 0.118046 8.63179 4.02342 2.95115 -2.26617 -0.826224 0.19062 -35.8039 2.36403 27.9352 
207 1 1 10.9866 10.174 2.85711 0 0 0 0.439462 0.406962 0.114284 10.9866 10.174 2.85711 0.487845 -0.208626 -1.1816 -0.459202 15.3872 18.4468 
3306 1 1 3.90789 12.4595 0.0977284 0 0 1 0.156316 0.498381 0.00390913 3.90789 12.4595 25.0977 -1.25899 -0.123973 -0.918589 -3.764 -2.18844 0.834852 
170 1 1 4.44114 9.90226 1.31656 0 0 0 0.177645 0.396091 0.0526625 4.44114 9.90226 1.31656 1.11292 1.41748 0.360059 17.2522 4.63674 -35.5801 
7632 1 1 0.810814 8.77864 1.79738 1 0 0 0.0324325 0.351146 0.0718952 25.8108 8.77864 1.79738 -1.10897 0.355046 1.31627 14.0701 -19.8808 9.45936 
514 1 1 2.05793 2.40658 1.8456 0 0 0 0.0823172 0.0962631 0.073824 2.05793 2.40658 1.8456 -0.968544 -0.836741 -1.01335 -12.2553 1.75286 -4.98958 
173 1 1 9.0386 8.13036 1.81634 0 0 0 0.361544 0.325215 0.0726537 9.0386 8.13036 1.81634 -1.29792 1.50414 0.103566 18.7353 5.74175 -28.1202 
3397 1 1 0.0745859 11.8258 0.78801 0 0 0 0.00298343 0.473033 0.0315204 0.0745859 11.8258 0.78801 0.772725 -1.29567 0.310624 12.5917 1.12189 -3.73934 
3808 1 1 3.92014 2.90277 2.69909 0 1 0 0.156806 0.116111 0.107964 3.92014 27.9028 2.69909 0.869132 -1.00968 -0.0665341 -6.3375 -15.9598 -3.70533 
336 1 1 9.41504 6.28396 2.25936 0 0 0 0.376602 0.251359 0.0903746 9.41504 6.28396 2.25936 -0.153566 0.985141 -0.265259 -6.17569 3.31802 -1.40996 
967 1 1 5.02534 4.19938 4.99091 0 0 0 0.201014 0.167975 0.199636 5.02534 4.19938 4.99091 1.93905 -1.35815 0.742753 0.886229 15.998 9.96841 
214 1 1 0.856689 9.72862 1.53234 0 0 0 0.0342676 0.389145 0.0612938 0.856689 9.72862 1.53234 1.45272 -0.197878 -0.836912 1.90905 8.77938 -4.98564 
718 1 1 8.34751 1.07978 0.735932 0 0 0 0.333901 0.0431912 0.0294373 8.34751 1.07978 0.735932 -1.17304 1.51757 -0.207723 -43.0715 10.9323 34.028 
3171 1 1 10.9482 3.0163 0.399505 0 0 1 0.437929 0.120652 0.0159802 10.9482 3.0163 25.3995 -0.0371898 -0.186382 0.25856 2.79745 11.4932 -19.234 
4048 1 1 9.94797 1.39266 4.2932 0 1 0 0.397919 0.0557064 0.171728 9.94797 26.3927 4.2932 -1.43635 1.13274 -0.86003 34.2417 -36.4955 -13.7146 
3620 1 1 2.53492 11.6824 3.05652 0 0 0 0.101397 0.467294 0.122261 2.53492 11.6824 3.05652 -0.684884 0.876165 0.820675 27.1908 57.6279 -42.3562 
516 1 1 4.41482 1.25935 0.733461 0 0 0 0.176593 0.050374 0.0293384 4.41482 1.25935 0.733461 -0.691404 -0.899642 -3.51419 16.1771 -0.058805 5.48587 
159 1 1 0.517678 5.264 2.61138 0 0 0 0.0207071 0.21056 0.104455 0.517678 5.264 2.61138 0.208664 -0.356187 -2.15438 -4.54561 4.57971 12.5149 
527 1 1 4.56376 0.265604 4.72505 0 0 0 0.18255 0.0106241 0.189002 4.56376 0.265604 4.72505 0.280513 0.757335 1.21169 -10.3362 -3.59171 21.0758 
4070 1 1 4.27699 11.918 3.05332 0 0 0 0.17108 0.476722 0.122133 4.27699 11.918 3.05332 -0.135873 -0.749934 2.52822 -17.8446 28.7643 3.02814 
187 1 1 2.6054 10.196 3.18662 0 0 0 0.104216 0.407841 0.127465 2.6054 10.196 3.18662 -0.0490929 -0.267254 0.310643 14.3319 -0.618583 28.5103 
823 1 1 10.9416 8.65 5.22029 0 0 0 0.437662 0.346 0.208811 10.9416 8.65 5.22029 -0.553946 1.45769 0.833351 11.5811 -1.40201 0.527052 
736 1 1 1.05562 5.88366 4.68797 0 0 0 0.0422248 0.235346 0.187519 1.05562 5.88366 4.68797 0.381959 -0.129702 0.62232 1.72768 -1.73371 -7.63255 
1339 1 1 0.658083 11.71 5.58218 0 0 0 0.0263233 0.468401 0.223287 0.658083 11.71 5.58218 -0.886647 -0.0520442 0.187086 -16.3432 5.84367 -6.33834 
3214 1 1 0.780408 3.65355 0.367503 0 0 1 0.0312163 0.146142 0.0147001 0.780408 3.65355 25.3675 -0.41636 0.142414 -1.50119 -5.69421 -18.0865 12.9729 
25 1 1 10.3915 2.45995 1.03547 0 0 0 0.415658 0.098398 0.0414189 10.3915 2.45995 1.03547 0.639811 -1.31582 -0.444566 -1.75942 -3.311 23.0456 
7606 1 1 12.0717 12.0147 4.18183 0 0 0 0.482866 0.480587 0.167273 12.0717 12.0147 4.18183 -0.135922 -0.0552039 0.00880187 -20.9809 7.45789 -2.54218 
238 1 1 10.0041 1.80344 1.89147 0 0 0 0.400163 0.0721374 0.075659 10.0041 1.80344 1.89147 0.0372417 -0.02482 0.129917 -0.316872 3.85968 -13.5551 
6488 1 1 9.11647 1.42256 2.41915 0 1 1 0.364659 0.0569026 0.096766 9.11647 26.4226 27.4192 0.602303 0.299148 -0.00287548 -13.7939 11.7657 19.6553 
4273 1 1 8.19747 1.12628 3.73969 0 1 0 0.327899 0.0450511 0.149587 8.19747 26.1263 3.73969 -0.894032 -0.770257 -0.484589 25.6992 26.7437 -6.90769 
7124 1 1 1.92578 10.6691 4.42572 1 0 0 0.0770311 0.426766 0.177029 26.9258 10.6691 4.42572 -1.26391 1.06906 0.503208 7.08862 12.7022 -16.3172 
889 1 1 7.26621 10.6873 2.05228 0 0 0 0.290648 0.427492 0.0820912 7.26621 10.6873 2.05228 0.344808 0.0740457 1.89961 1.87397 -9.46 -9.64736 
3369 1 1 2.88934 11.6219 1.19211 0 0 1 0.115573 0.464878 0.0476844 2.88934 11.6219 26.1921 0.455385 1.31582 1.54866 -43.1918 -3.52304 -9.8634 
2954 1 1 11.734 0.19783 1.18437 0 0 1 0.46936 0.00791319 0.0473747 11.734 0.19783 26.1844 0.986125 -0.228565 -0.0416495 -11.6056 9.48613 5.65509 
257 1 1 0.59439 3.97529 2.44276 0 0 0 0.0237756 0.159012 0.0977103 0.59439 3.97529 2.44276 -0.134522 -0.395597 -0.395874 -7.67416 8.50071 -16.5134 
6526 1 1 0.566122 10.5673 1.06106 0 0 1 0.0226449 0.422694 0.0424424 0.566122 10.5673 26.0611 -0.103093 0.215126 -0.157419 -32.3137 19.334 0.693264 
6742 1 1 8.02671 1.46187 2.22054 0 1 1 0.321068 0.058475 0.0888217 8.02671 26.4619 27.2205 0.203065 0.197554 1.45707 -1.55681 6.54455 2.88585 
165 1 1 6.10963 8.0654 0.651873 0 0 0 0.244385 0.322616 0.0260749 6.10963 8.0654 0.651873 0.636116 -0.36011 -0.0336908 -32.684 -10.2756 -37.7611 
4231 1 1 5.70158 1.25416 4.31867 0 1 0 0.228063 0.0501662 0.172747 5.70158 26.2542 4.31867 -0.979554 0.714646 -0.0846406 34.5638 57.4706 25.0017 
224 1 1 10.4787 11.6782 1.23069 0 0 0 0.419149 0.467129 0.0492276 10.4787 11.6782 1.23069 -0.736254 0.350732 1.18697 -6.36152 12.5332 4.88031 