ITEM: TIMESTEP
20000
ITEM: NUMBER OF ATOMS
13500
ITEM: BOX BOUNDS
0 25
0 25
0 25
ITEM: ATOMS id type mass x y z ix iy iz xs ys zs xu yu zu vx vy vz fx fy fz 
622 1 1 9.26494 9.74899 1.04923 0 0 0 0.370598 0.389959 0.0419692 9.26494 9.74899 1.04923 -0.67546 0.230645 -0.343535 12.5665 28.8683 -1.6814 
69 1 1 3.02469 6.62601 1.22105 0 0 0 0.120987 0.265041 0.0488419 3.02469 6.62601 1.22105 0.768443 1.20625 -0.81233 9.29565 -2.07141 10.9107 
669 1 1 2.77867 12.4878 1.12351 0 0 0 0.111147 0.499513 0.0449403 2.77867 12.4878 1.12351 -1.44243 1.00758 0.76956 2.26159 8.58567 -7.06549 
718 1 1 5.4387 5.05436 1.18193 0 0 0 0.217548 0.202175 0.0472773 5.4387 5.05436 1.18193 -1.56524 -0.368367 0.468156 0.0258608 10.0175 -4.86508 
10998 1 1 12.1151 3.84753 4.58106 0 1 0 0.484604 0.153901 0.183242 12.1151 28.8475 4.58106 0.863023 -2.06494 0.0777508 -32.8655 11.003 13.2789 
413 1 1 0.986783 8.57134 2.13418 0 0 0 0.0394713 0.342854 0.0853671 0.986783 8.57134 2.13418 -0.735596 1.47627 0.339203 17.1813 -6.41618 -2.88466 
4258 1 1 9.36389 -0.0551913 3.45576 0 1 0 0.374555 -0.00220765 0.13823 9.36389 24.9448 3.45576 0.383083 -1.412 0.118494 4.20575 25.6237 9.76553 
6869 1 1 2.01743 2.14439 0.265691 1 0 0 0.0806973 0.0857757 0.0106276 27.0174 2.14439 0.265691 -1.39424 0.579513 0.710508 10.5074 5.49661 -33.6522 
574 1 1 4.04326 7.22148 4.14032 0 0 0 0.161731 0.288859 0.165613 4.04326 7.22148 4.14032 -1.99537 0.470701 -0.282075 -11.0426 -23.7745 -24.5713 
7288 1 1 5.51722 8.12957 2.31135 1 0 0 0.220689 0.325183 0.0924539 30.5172 8.12957 2.31135 -0.386542 -0.117491 -0.38177 -0.774354 1.55084 -0.60798 
347 1 1 0.383705 8.01524 6.17719 0 0 0 0.0153482 0.32061 0.247087 0.383705 8.01524 6.17719 -0.525794 -0.347397 0.533646 9.07657 10.0308 -10.5988 
10748 1 1 11.3375 0.369183 2.7701 0 1 0 0.453499 0.0147673 0.110804 11.3375 25.3692 2.7701 1.49692 -0.430805 -1.03025 -3.54643 6.19984 -3.86045 
6581 1 1 2.41976 12.3735 2.64357 0 0 1 0.0967903 0.494941 0.105743 2.41976 12.3735 27.6436 0.205506 1.783 -1.64937 4.11234 25.2461 -4.93445 
4078 1 1 4.59507 10.5921 4.08627 0 0 0 0.183803 0.423683 0.163451 4.59507 10.5921 4.08627 1.22254 1.84127 0.551615 1.86732 9.69332 15.5162 
228 1 1 0.878549 6.06121 3.15008 0 0 0 0.035142 0.242448 0.126003 0.878549 6.06121 3.15008 0.313275 0.287762 0.388141 3.44147 -16.1566 -2.90566 
162 1 1 2.53359 5.03898 0.462195 0 0 0 0.101344 0.201559 0.0184878 2.53359 5.03898 0.462195 -0.800413 -1.90541 -2.03979 13.0491 13.909 -6.29059 
530 1 1 6.03546 8.45499 0.76005 0 0 0 0.241418 0.3382 0.030402 6.03546 8.45499 0.76005 0.475214 -0.410447 -1.3511 8.02611 23.1333 17.3238 
3346 1 1 0.686854 7.91031 3.50254 0 0 1 0.0274741 0.316412 0.140102 0.686854 7.91031 28.5025 -0.163613 0.149766 -0.245059 36.0551 -6.0328 40.2113 
3252 1 1 5.81331 4.999 3.75335 0 0 1 0.232533 0.19996 0.150134 5.81331 4.999 28.7534 -0.563205 -0.606438 0.173095 8.27186 -3.58192 -13.6626 
2861 1 1 6.58341 6.82538 2.30838 0 0 1 0.263336 0.273015 0.092335 6.58341 6.82538 27.3084 0.674146 0.209141 1.03935 8.88368 -13.668 -23.1388 
3616 1 1 1.8529 8.86088 1.57918 0 0 0 0.0741161 0.354435 0.0631674 1.8529 8.86088 1.57918 -1.67559 -0.488504 -0.46783 -17.6004 7.39949 -10.9865 
6804 1 1 0.129431 0.836377 1.54382 1 0 0 0.00517722 0.0334551 0.0617529 25.1294 0.836377 1.54382 0.857925 -0.88233 -0.531841 4.29625 -11.5216 -38.2213 
7093 1 1 1.77236 6.24067 4.04517 1 0 0 0.0708943 0.249627 0.161807 26.7724 6.24067 4.04517 0.705707 -0.0753928 0.151302 -5.70045 4.77625 -1.6164 
9878 1 1 0.100012 8.92679 0.304429 1 0 1 0.00400048 0.357072 0.0121772 25.1 8.92679 25.3044 -0.289313 -0.0889156 -0.88407 -1.46728 -2.02636 5.08743 
10430 1 1 11.9853 12.1885 2.89687 0 0 0 0.479412 0.487539 0.115875 11.9853 12.1885 2.89687 -0.203427 1.72384 -0.151703 -6.32353 -7.42611 -7.29189 
9790 1 1 4.1281 4.65951 3.78034 1 0 1 0.165124 0.186381 0.151214 29.1281 4.65951 28.7803 0.423715 -0.293845 -0.213876 -5.91838 26.6886 37.5704 
3923 1 1 9.5314 12.4496 5.83812 0 0 0 0.381256 0.497983 0.233525 9.5314 12.4496 5.83812 -0.951941 -0.658084 0.0330925 12.0031 -3.75324 44.8444 
142 1 1 10.4066 8.97509 3.79142 0 0 0 0.416264 0.359003 0.151657 10.4066 8.97509 3.79142 -1.01432 0.758672 0.898009 -31.8615 18.3086 29.0003 
408 1 1 0.730509 5.77977 0.89667 0 0 0 0.0292203 0.231191 0.0358668 0.730509 5.77977 0.89667 0.0332302 1.36323 0.834613 35.8169 14.895 16.5821 
1011 1 1 11.8596 9.34536 0.105504 0 0 0 0.474383 0.373815 0.00422016 11.8596 9.34536 0.105504 -0.142483 1.57536 1.1238 -15.665 14.5888 7.67527 
3672 1 1 10.8056 11.733 3.91062 0 0 0 0.432223 0.469321 0.156425 10.8056 11.733 3.91062 -0.540937 0.474573 0.30039 -2.62331 3.40682 -2.66775 
3570 1 1 11.3821 2.96726 2.18145 0 1 0 0.455282 0.118691 0.0872581 11.3821 27.9673 2.18145 1.41481 0.402329 -1.41607 7.09781 21.5688 2.45286 
3203 1 1 6.35276 3.51265 0.173917 0 0 1 0.25411 0.140506 0.00695667 6.35276 3.51265 25.1739 -0.825745 -0.928546 -0.48655 -10.3588 -10.823 -11.1824 
624 1 1 4.14818 11.5849 0.625348 0 0 0 0.165927 0.463396 0.0250139 4.14818 11.5849 0.625348 -0.525454 -0.222149 -0.661585 21.5368 -30.305 -0.5363 
3283 1 1 6.50308 7.75824 0.195704 0 0 1 0.260123 0.310329 0.00782818 6.50308 7.75824 25.1957 -0.686399 0.36853 0.710061 11.416 -8.13805 17.8318 
3116 1 1 3.2398 7.76295 0.265647 0 0 1 0.129592 0.310518 0.0106259 3.2398 7.76295 25.2656 0.216485 0.600861 -1.74423 9.99627 -2.41564 1.11897 
1258 1 1 3.43202 6.35866 4.67351 0 0 0 0.137281 0.254346 0.186941 3.43202 6.35866 4.67351 0.746681 -1.12151 -1.87949 9.3885 36.0812 -13.4099 
7961 1 1 0.711447 6.42908 4.23547 1 0 0 0.0284579 0.257163 0.169419 25.7114 6.42908 4.23547 -0.665651 2.50907 1.11025 3.64827 -4.01306 3.03108 
204 1 1 4.78357 12.3141 3.12687 0 0 0 0.191343 0.492565 0.125075 4.78357 12.3141 3.12687 0.183071 0.426856 -1.69662 0.82506 5.84807 -7.0458 
7130 1 1 10.9649 8.49459 3.16783 0 0 0 0.438595 0.339783 0.126713 10.9649 8.49459 3.16783 -0.683875 -0.420509 -0.406131 20.5709 -17.228 -23.0318 
10768 1 1 6.95423 2.32947 2.94692 1 1 0 0.278169 0.0931787 0.117877 31.9542 27.3295 2.94692 0.540401 0.911619 0.259771 -6.18151 44.3185 4.31901 
7350 1 1 0.801542 8.98334 4.06179 1 0 0 0.0320617 0.359334 0.162472 25.8015 8.98334 4.06179 -1.47677 1.27851 -0.0683189 53.4633 20.616 7.53071 
6925 1 1 0.357125 6.89112 3.38528 1 0 0 0.014285 0.275645 0.135411 25.3571 6.89112 3.38528 0.982907 0.254622 1.6487 -30.4658 16.6972 -11.2063 
10872 1 1 1.96013 11.8668 4.42527 1 0 0 0.0784053 0.474674 0.177011 26.9601 11.8668 4.42527 -0.409203 -1.07506 1.46633 -5.02756 13.8767 0.340725 
929 1 1 9.37637 1.50338 4.86169 0 0 0 0.375055 0.0601354 0.194468 9.37637 1.50338 4.86169 0.0043734 -1.70634 -0.260047 -33.5899 -8.01749 -12.8455 
3723 1 1 12.5716 0.00249673 2.78708 0 1 0 0.502863 9.98693e-05 0.111483 12.5716 25.0025 2.78708 1.74565 -0.775506 0.40672 -0.657434 -0.108683 -3.70101 
309 1 1 10.0533 7.98969 4.27892 0 0 0 0.402131 0.319588 0.171157 10.0533 7.98969 4.27892 0.603707 -1.09165 1.20726 -4.96292 11.1431 29.8427 
902 1 1 3.17396 0.214823 5.67647 0 0 0 0.126958 0.00859294 0.227059 3.17396 0.214823 5.67647 1.57075 -0.901457 -0.430063 4.2959 1.60138 -2.2311 
201 1 1 10.722 11.4138 1.22508 0 0 0 0.428879 0.456551 0.0490032 10.722 11.4138 1.22508 0.75243 -0.163871 -0.777428 -15.3626 -19.5639 -20.4452 
127 1 1 4.95695 11.2129 1.35538 0 0 0 0.198278 0.448515 0.0542153 4.95695 11.2129 1.35538 -0.766956 -1.23574 1.71506 -24.6342 19.4485 16.836 
464 1 1 12.4575 2.92713 4.13882 0 0 0 0.4983 0.117085 0.165553 12.4575 2.92713 4.13882 1.32259 1.0489 -0.997628 5.60867 -21.9477 16.8282 
3310 1 1 7.7299 10.9402 1.06018 0 0 1 0.309196 0.437609 0.0424071 7.7299 10.9402 26.0602 0.0816397 -0.386238 -0.537815 -0.796044 -14.93 -25.7036 
409 1 1 0.653072 11.4675 1.80546 0 0 0 0.0261229 0.4587 0.0722183 0.653072 11.4675 1.80546 0.645874 0.499612 1.26288 22.2916 -29.8935 66.1007 
2755 1 1 8.547 0.110275 0.608626 0 0 1 0.34188 0.004411 0.024345 8.547 0.110275 25.6086 0.708516 -0.424023 0.918144 16.5296 -32.2235 19.0981 
6892 1 1 0.787519 7.82771 4.78674 1 0 0 0.0315007 0.313108 0.19147 25.7875 7.82771 4.78674 -0.064204 0.210794 -1.05889 -2.77575 5.01949 -48.3992 
7603 1 1 1.90257 10.4064 2.7843 1 0 0 0.076103 0.416254 0.111372 26.9026 10.4064 2.7843 0.471256 0.0466965 2.53176 8.53263 5.95871 -3.22624 
3191 1 1 5.43961 2.71344 1.40031 0 0 1 0.217584 0.108537 0.0560123 5.43961 2.71344 26.4003 0.0664515 -0.534975 1.4895 22.937 17.5161 12.7885 
3605 1 1 10.3542 10.3431 2.32107 0 0 0 0.414169 0.413725 0.0928427 10.3542 10.3431 2.32107 -1.32703 -0.0119735 -1.09998 14.5259 27.8459 3.12048 
6897 1 1 3.52206 5.65418 1.66234 1 0 0 0.140882 0.226167 0.0664936 28.5221 5.65418 1.66234 -0.8964 0.569508 0.13898 -6.03684 17.5868 24.347 
3784 1 1 10.3419 0.488389 1.94378 0 1 0 0.413675 0.0195356 0.0777512 10.3419 25.4884 1.94378 -1.15133 0.0490016 -0.00265788 -4.77378 24.3439 -10.3104 
740 1 1 1.2776 0.013683 4.4178 0 0 0 0.0511038 0.000547318 0.176712 1.2776 0.013683 4.4178 -0.825352 0.684727 -0.0373889 -10.358 17.2856 -2.40362 
7230 1 1 1.14451 5.05159 4.32138 1 0 0 0.0457806 0.202063 0.172855 26.1445 5.05159 4.32138 -0.065935 0.383047 -0.230267 -27.5833 33.5724 -59.6298 
3343 1 1 5.59768 11.5705 0.607909 0 0 1 0.223907 0.46282 0.0243163 5.59768 11.5705 25.6079 0.200706 -1.13239 -0.327023 -3.79977 2.1422 -19.6052 
233 1 1 4.29415 0.864908 3.00241 0 0 0 0.171766 0.0345963 0.120097 4.29415 0.864908 3.00241 1.69201 0.274898 0.72843 -11.8246 1.29819 -1.30303 
358 1 1 7.8465 8.22326 0.555533 0 0 0 0.31386 0.328931 0.0222213 7.8465 8.22326 0.555533 0.153178 -0.0700081 1.1784 -25.0454 12.113 10.435 
844 1 1 10.0207 12.0929 3.1624 0 0 0 0.400827 0.483717 0.126496 10.0207 12.0929 3.1624 2.35282 0.479907 0.704183 13.7024 6.47197 31.3288 
376 1 1 0.0304597 10.7156 4.61255 0 0 0 0.00121839 0.428626 0.184502 0.0304597 10.7156 4.61255 -0.199141 1.95656 -1.4518 9.55867 4.06264 -0.978397 
7606 1 1 11.7885 10.2507 3.75727 0 0 0 0.471538 0.410026 0.150291 11.7885 10.2507 3.75727 0.0893594 -1.93273 0.55526 13.5216 21.3373 14.3917 
4032 1 1 10.888 2.09249 2.23983 0 1 0 0.43552 0.0836997 0.0895932 10.888 27.0925 2.23983 0.936259 -1.66497 0.38607 -41.5385 -14.8161 -28.5432 
218 1 1 1.02932 6.86008 1.07798 0 0 0 0.0411727 0.274403 0.0431193 1.02932 6.86008 1.07798 1.67387 -1.44928 -0.626221 -6.12047 -14.0844 -6.64143 
7123 1 1 0.774653 4.11369 2.06239 1 0 0 0.0309861 0.164548 0.0824956 25.7747 4.11369 2.06239 -0.46672 1.23944 0.812297 3.94989 2.23348 5.57428 
4030 1 1 6.61141 5.08017 3.0293 0 1 0 0.264456 0.203207 0.121172 6.61141 30.0802 3.0293 -0.378032 0.907932 -0.476643 -32.3944 -18.3613 30.3511 
1173 1 1 7.20126 0.181437 4.33439 0 0 0 0.288051 0.00725749 0.173376 7.20126 0.181437 4.33439 0.819454 0.693988 0.86207 -0.520122 -15.8762 -11.3225 
10845 1 1 0.547057 12.4479 5.48652 1 0 0 0.0218823 0.497916 0.219461 25.5471 12.4479 5.48652 0.608448 1.82397 -0.060831 33.06 -15.8046 56.2952 
75 1 1 8.13967 1.35965 3.14008 0 0 0 0.325587 0.0543861 0.125603 8.13967 1.35965 3.14008 -1.46654 0.490277 0.467233 5.99093 -6.71286 12.7854 
385 1 1 1.39443 5.85636 5.00652 0 0 0 0.055777 0.234254 0.200261 1.39443 5.85636 5.00652 0.875283 0.129212 0.657591 24.5536 -20.804 -25.7431 
393 1 1 2.79181 8.80233 0.182842 0 0 0 0.111673 0.352093 0.00731367 2.79181 8.80233 0.182842 0.967771 0.691218 0.670674 25.9408 -13.4902 23.3034 
1164 1 1 1.7226 2.57037 5.44219 0 0 0 0.0689039 0.102815 0.217688 1.7226 2.57037 5.44219 -0.680353 -1.1262 1.33135 5.83959 4.17227 1.1495 
3289 1 1 8.01999 8.0735 1.83972 0 0 1 0.3208 0.32294 0.0735887 8.01999 8.0735 26.8397 0.421134 1.38972 1.02031 -6.44678 2.6012 -9.44336 
261 1 1 1.68599 0.104555 0.442252 0 0 0 0.0674397 0.0041822 0.0176901 1.68599 0.104555 0.442252 0.0811842 -0.350291 -1.00879 -23.4806 -8.93901 7.05484 
398 1 1 7.57616 6.98805 2.04438 0 0 0 0.303046 0.279522 0.0817754 7.57616 6.98805 2.04438 0.525105 -0.0480906 1.22468 -11.2383 15.0494 -30.3683 
10326 1 1 10.8477 2.08099 0.790608 0 1 0 0.433908 0.0832397 0.0316243 10.8477 27.081 0.790608 0.416466 0.891249 0.802795 0.0118941 -3.39172 -1.46255 
606 1 1 8.73288 10.7406 0.985069 0 0 0 0.349315 0.429623 0.0394028 8.73288 10.7406 0.985069 -0.0926896 1.29322 1.36427 -2.63386 2.03898 -0.339288 
8293 1 1 0.816654 11.4432 2.97395 1 0 0 0.0326662 0.457729 0.118958 25.8167 11.4432 2.97395 -0.0514654 -1.94202 -0.629971 -9.12483 -3.88774 -13.5998 
7322 1 1 11.6348 6.22571 1.00027 0 0 0 0.465393 0.249028 0.0400108 11.6348 6.22571 1.00027 2.33074 0.494619 -0.186441 -2.43453 -1.6381 -4.53631 
7353 1 1 11.2604 10.1075 1.74108 0 0 0 0.450417 0.404299 0.0696433 11.2604 10.1075 1.74108 0.654302 -0.252806 -0.220805 5.07505 -0.885689 1.47327 
193 1 1 1.86202 11.137 0.131527 0 0 0 0.0744808 0.445479 0.00526108 1.86202 11.137 0.131527 -0.617141 -0.906871 0.446828 8.50968 17.0033 1.52682 
50 1 1 6.90976 3.73617 4.65413 0 0 0 0.27639 0.149447 0.186165 6.90976 3.73617 4.65413 0.322275 -0.577476 1.35435 24.0629 28.844 -52.3076 
4094 1 1 9.14301 8.7764 4.13434 0 0 0 0.36572 0.351056 0.165373 9.14301 8.7764 4.13434 -0.611861 0.36689 0.0506338 -5.74474 13.9077 9.39727 
3099 1 1 12.1045 5.291 0.176298 0 0 1 0.484181 0.21164 0.00705194 12.1045 5.291 25.1763 1.29836 0.337039 0.355001 -11.6929 8.5011 2.78089 
55 1 1 9.98033 4.74878 2.8466 0 0 0 0.399213 0.189951 0.113864 9.98033 4.74878 2.8466 -1.71273 -0.210735 1.40325 34.2963 -41.8833 13.1479 
4465 1 1 10.9513 0.95425 4.66703 0 1 0 0.438054 0.03817 0.186681 10.9513 25.9542 4.66703 1.70548 -1.17151 0.325496 20.6394 -11.8603 -16.6564 
10023 1 1 9.28352 2.90286 1.60813 0 0 1 0.371341 0.116114 0.0643252 9.28352 2.90286 26.6081 -1.31141 -0.0276035 1.77142 -8.9024 6.56727 7.71364 
532 1 1 11.1613 3.32507 4.05882 0 0 0 0.446452 0.133003 0.162353 11.1613 3.32507 4.05882 -1.74978 -2.21278 0.476607 -4.71946 16.1477 8.0876 
6814 1 1 10.0115 7.70857 0.584758 0 0 0 0.400458 0.308343 0.0233903 10.0115 7.70857 0.584758 -1.85335 1.09088 -0.186128 -19.5515 21.0142 0.294002 
312 1 1 12.4737 1.61782 0.853482 0 0 0 0.498946 0.0647128 0.0341393 12.4737 1.61782 0.853482 -0.161827 0.170805 -1.87377 2.44453 14.6341 -5.95175 
2893 1 1 6.01226 6.86292 0.369795 0 0 1 0.24049 0.274517 0.0147918 6.01226 6.86292 25.3698 0.489254 0.514249 0.876544 -20.721 -4.7955 -5.9174 
19 1 1 5.70523 0.643665 2.763 0 0 0 0.228209 0.0257466 0.11052 5.70523 0.643665 2.763 -1.66203 -0.195193 0.820037 3.01116 -14.0847 -18.9203 
3593 1 1 7.14444 2.7357 1.56574 0 1 0 0.285778 0.109428 0.0626297 7.14444 27.7357 1.56574 0.547185 0.24933 1.28394 -6.11405 2.20787 -5.66538 
3658 1 1 7.12487 9.58008 3.25781 0 0 0 0.284995 0.383203 0.130312 7.12487 9.58008 3.25781 2.32752 -1.57121 -0.885665 0.766034 51.8836 11.4934 
5962 1 1 10.2357 1.15313 0.826747 0 1 1 0.40943 0.0461252 0.0330699 10.2357 26.1531 25.8267 0.151418 0.101329 0.288042 -7.44963 -3.59311 24.4238 
778 1 1 4.8287 0.645819 2.02971 0 0 0 0.193148 0.0258328 0.0811886 4.8287 0.645819 2.02971 -0.0869237 0.230716 2.63521 -2.07528 -27.2979 2.47104 
7184 1 1 7.27642 10.8817 3.07827 1 0 0 0.291057 0.435269 0.123131 32.2764 10.8817 3.07827 1.05252 0.694358 -0.751583 -1.64037 2.65669 0.641903 
2800 1 1 0.557418 7.91693 0.620322 0 0 1 0.0222967 0.316677 0.0248129 0.557418 7.91693 25.6203 2.38007 0.629583 0.262336 22.7513 -4.35597 -16.0617 
7097 1 1 9.29415 7.01463 3.99833 0 0 0 0.371766 0.280585 0.159933 9.29415 7.01463 3.99833 0.434493 -1.55279 -0.921276 20.0382 12.8112 -29.0145 
9877 1 1 1.81353 8.94206 0.211915 1 0 1 0.0725412 0.357682 0.00847662 26.8135 8.94206 25.2119 0.0474043 -0.477552 0.199996 -21.4811 -0.57807 6.4439 
3828 1 1 5.39336 11.5672 2.52555 0 0 0 0.215734 0.462688 0.101022 5.39336 11.5672 2.52555 0.0526443 0.29966 0.665154 -19.283 -6.57453 -3.25491 
60 1 1 9.25462 1.15652 3.22586 0 0 0 0.370185 0.0462607 0.129034 9.25462 1.15652 3.22586 -0.318057 0.322817 -0.169305 3.69633 14.8889 5.35241 
7380 1 1 4.67832 10.5035 2.25635 1 0 0 0.187133 0.42014 0.0902542 29.6783 10.5035 2.25635 0.96047 0.00982781 0.431864 23.8554 -15.374 -4.15858 
7348 1 1 4.53616 5.74359 1.31073 1 0 0 0.181446 0.229744 0.0524294 29.5362 5.74359 1.31073 0.360008 -0.118059 1.40927 -20.4886 -21.8455 -15.1092 
7962 1 1 3.70679 7.63134 1.27467 1 0 0 0.148271 0.305254 0.0509867 28.7068 7.63134 1.27467 2.07599 0.0879327 1.09193 -34.1296 5.92918 -2.74912 
572 1 1 4.99112 1.45494 1.33881 0 0 0 0.199645 0.0581978 0.0535525 4.99112 1.45494 1.33881 1.03271 0.686642 0.188108 -11.2557 5.83879 -10.5133 
3814 1 1 8.15885 2.57109 1.51102 0 1 0 0.326354 0.102844 0.0604408 8.15885 27.5711 1.51102 -0.68111 0.13106 -1.30449 5.2255 -10.4714 12.6034 
224 1 1 10.3751 11.8349 0.330665 0 0 0 0.415005 0.473394 0.0132266 10.3751 11.8349 0.330665 -0.643832 2.01579 -0.786831 -23.9684 3.1414 10.359 
788 1 1 7.02522 8.64324 3.51592 0 0 0 0.281009 0.34573 0.140637 7.02522 8.64324 3.51592 0.722619 0.844048 0.461492 -4.58001 -40.556 0.662585 
3325 1 1 10.095 6.64249 3.35911 0 0 1 0.4038 0.265699 0.134365 10.095 6.64249 28.3591 -0.483115 0.188822 -1.01048 -1.43858 -15.0028 -2.78603 
4090 1 1 8.46853 12.435 5.96211 0 0 0 0.338741 0.497399 0.238484 8.46853 12.435 5.96211 0.273483 1.775 -0.0991534 -7.84477 36.9919 -13.9073 
731 1 1 12.4788 1.6949 5.66032 0 0 0 0.499152 0.0677961 0.226413 12.4788 1.6949 5.66032 1.1035 0.229178 1.53722 -1.27887 -9.48198 -13.8113 
10776 1 1 10.5322 3.18466 1.48166 0 1 0 0.421286 0.127386 0.0592664 10.5322 28.1847 1.48166 1.15077 1.66263 0.761359 -3.33463 -7.46615 -2.6917 
3822 1 1 7.62515 0.606036 5.21896 0 1 0 0.305006 0.0242414 0.208758 7.62515 25.606 5.21896 -0.019633 0.628796 0.634261 -2.63793 14.6444 6.40377 
3806 1 1 8.35513 1.01248 0.282813 0 1 0 0.334205 0.040499 0.0113125 8.35513 26.0125 0.282813 -0.963147 -0.516129 -0.828215 -32.2816 53.0116 -4.91339 
1232 1 1 11.5086 4.15884 3.16124 0 0 0 0.460342 0.166354 0.126449 11.5086 4.15884 3.16124 -0.709785 -0.59974 -0.033418 -33.7553 -0.0677573 17.0157 
10364 1 1 2.52237 4.66085 2.49405 1 0 0 0.100895 0.186434 0.099762 27.5224 4.66085 2.49405 3.07041 -1.16253 1.03501 3.3803 -15.4848 9.55381 
7157 1 1 11.1872 8.07575 4.22 0 0 0 0.447489 0.32303 0.1688 11.1872 8.07575 4.22 0.664156 -0.260067 -0.887162 -7.86708 -1.88337 4.34477 
638 1 1 3.97599 9.77924 4.23236 0 0 0 0.15904 0.39117 0.169294 3.97599 9.77924 4.23236 1.84134 0.568425 2.50207 -8.35354 -9.34983 22.5264 
378 1 1 2.18152 5.64554 2.02591 0 0 0 0.0872607 0.225821 0.0810362 2.18152 5.64554 2.02591 -0.0170147 0.783101 1.71881 19.4742 7.1572 -28.4226 
6873 1 1 11.4284 9.28768 3.96447 0 0 0 0.457138 0.371507 0.158579 11.4284 9.28768 3.96447 -0.288682 -0.53497 0.336762 -6.4995 -12.509 16.9849 
115 1 1 10.4038 9.57038 1.28044 0 0 0 0.416152 0.382815 0.0512175 10.4038 9.57038 1.28044 -0.877712 1.78828 1.30791 3.03827 -2.99418 -15.8833 
334 1 1 6.44765 4.32622 1.84351 0 0 0 0.257906 0.173049 0.0737402 6.44765 4.32622 1.84351 0.881848 -0.10398 -2.05439 -12.5719 1.69524 8.53334 
6900 1 1 3.38386 3.89813 -0.0960222 1 0 0 0.135354 0.155925 -0.00384089 28.3839 3.89813 -0.0960222 -1.41884 0.573441 -0.590518 -3.71056 -0.34913 11.2125 
173 1 1 11.477 7.0836 1.8147 0 0 0 0.459081 0.283344 0.072588 11.477 7.0836 1.8147 0.458367 0.78185 1.16377 -13.2384 -0.517643 13.6539 
9969 1 1 10.3148 4.8853 1.54053 0 0 1 0.412594 0.195412 0.0616214 10.3148 4.8853 26.5405 -0.34866 1.82869 2.51202 7.56076 -4.2125 -0.407278 
544 1 1 2.2832 3.83757 4.208 0 0 0 0.0913279 0.153503 0.16832 2.2832 3.83757 4.208 -1.72097 -0.438499 1.14447 -7.00061 -25.8949 -32.8877 
3797 1 1 2.86445 2.3201 2.12906 0 1 0 0.114578 0.092804 0.0851622 2.86445 27.3201 2.12906 1.49596 0.499774 -0.514932 -50.585 -70.8306 -33.0469 
404 1 1 12.4383 6.45553 0.198286 0 0 0 0.497531 0.258221 0.00793145 12.4383 6.45553 0.198286 -0.539339 0.0903401 0.00326592 -17.4186 -5.08803 -17.6103 
667 1 1 6.16593 11.2116 1.38958 0 0 0 0.246637 0.448465 0.055583 6.16593 11.2116 1.38958 1.94809 0.81523 0.569085 20.1241 -43.1626 1.20843 
7651 1 1 11.2713 5.18552 5.87259 0 0 0 0.450852 0.207421 0.234904 11.2713 5.18552 5.87259 0.513602 0.00611068 0.687469 -4.28009 -1.93652 -6.37878 
3606 1 1 0.850549 12.263 4.23325 0 0 0 0.0340219 0.49052 0.16933 0.850549 12.263 4.23325 0.292867 0.767497 0.575128 10.5865 -3.20204 -4.16618 
653 1 1 12.0075 8.47432 3.68733 0 0 0 0.480299 0.338973 0.147493 12.0075 8.47432 3.68733 0.365168 -0.443739 -0.712275 14.0625 -10.2122 -8.96324 
7066 1 1 4.66198 0.463161 4.62631 0 0 0 0.186479 0.0185264 0.185052 4.66198 0.463161 4.62631 0.778908 -0.868599 -1.68663 29.1139 13.7496 8.07366 
11022 1 1 1.77664 3.65853 3.27524 1 1 0 0.0710655 0.146341 0.13101 26.7766 28.6585 3.27524 -1.3365 -1.6873 0.0601835 12.7867 28.8207 10.0573 
3052 1 1 0.7321 4.45512 0.999319 0 0 1 0.029284 0.178205 0.0399728 0.7321 4.45512 25.9993 -0.299678 -1.16986 -0.968993 -0.94504 7.14009 35.2337 
7778 1 1 0.519731 6.25105 5.24611 1 0 0 0.0207892 0.250042 0.209844 25.5197 6.25105 5.24611 0.888404 0.197271 0.740301 -1.79461 3.87902 13.0673 
293 1 1 2.64375 4.68612 1.46921 0 0 0 0.10575 0.187445 0.0587686 2.64375 4.68612 1.46921 -0.0486536 0.167451 -0.917308 10.4807 28.114 4.24556 
322 1 1 4.07799 6.72705 1.02839 0 0 0 0.16312 0.269082 0.0411355 4.07799 6.72705 1.02839 -0.0405128 -0.0775464 1.39183 9.16716 -22.2961 -30.931 
541 1 1 1.64549 2.96898 4.49466 0 0 0 0.0658196 0.118759 0.179786 1.64549 2.96898 4.49466 -1.65243 -0.613696 -0.50655 29.394 24.482 -14.1134 
3520 1 1 5.67905 0.189434 4.29183 0 1 0 0.227162 0.00757734 0.171673 5.67905 25.1894 4.29183 0.0309851 1.15512 0.197631 11.2513 6.42984 -26.8752 
6526 1 1 2.36882 10.0562 0.24295 0 0 1 0.0947526 0.402249 0.00971802 2.36882 10.0562 25.243 0.124302 0.8316 -1.62085 7.6349 13.4696 20.17 
177 1 1 11.6139 11.2384 0.68633 0 0 0 0.464556 0.449537 0.0274532 11.6139 11.2384 0.68633 0.313503 -1.38295 1.20385 7.33992 -6.41735 10.1818 
3104 1 1 11.6411 7.19837 -0.0119251 0 0 1 0.465646 0.287935 -0.000477005 11.6411 7.19837 24.9881 0.72164 -0.198122 -0.527893 -25.8623 -23.1546 3.6588 
1327 1 1 9.50047 11.6367 5.15152 0 0 0 0.380019 0.465467 0.206061 9.50047 11.6367 5.15152 -2.53277 0.30397 0.81894 -19.8558 16.5654 -0.135783 
1058 1 1 3.10476 7.63853 2.44031 0 0 0 0.12419 0.305541 0.0976125 3.10476 7.63853 2.44031 -0.67311 2.33147 1.17026 -16.7406 -10.9311 -6.88027 
7181 1 1 0.0379814 12.2294 3.48926 1 0 0 0.00151926 0.489176 0.13957 25.038 12.2294 3.48926 -0.874451 0.415347 -1.45414 24.6649 2.52327 11.4027 
46 1 1 7.0574 7.91184 1.20735 0 0 0 0.282296 0.316474 0.048294 7.0574 7.91184 1.20735 -1.59188 -0.796183 0.310857 6.91623 -22.0705 -12.7444 
726 1 1 9.94415 0.671095 4.30811 0 0 0 0.397766 0.0268438 0.172324 9.94415 0.671095 4.30811 -0.660778 0.729455 -0.291262 -5.27742 32.0088 -16.3296 
3065 1 1 7.73243 6.36231 0.878633 0 0 1 0.309297 0.254492 0.0351453 7.73243 6.36231 25.8786 0.504834 -0.112041 -0.593651 -11.8249 -32.8073 -6.47551 
3228 1 1 7.19731 1.45698 2.65079 0 0 1 0.287892 0.0582791 0.106032 7.19731 1.45698 27.6508 -0.259008 -1.52241 0.451058 -1.86192 -67.1013 10.9879 
7377 1 1 4.75698 9.86394 6.06003 1 0 0 0.190279 0.394558 0.242401 29.757 9.86394 6.06003 1.51366 1.74176 0.992803 -21.7319 -42.273 15.5304 
780 1 1 4.84161 1.47635 0.196728 0 0 0 0.193664 0.0590541 0.00786911 4.84161 1.47635 0.196728 -0.567167 -0.919478 1.4065 -33.7872 -27.1111 5.01456 
81 1 1 4.12511 1.97483 2.87849 0 0 0 0.165004 0.0789932 0.115139 4.12511 1.97483 2.87849 0.33551 0.300985 -0.715141 -15.7443 -2.45072 10.316 
7411 1 1 10.8335 10.0144 3.5323 0 0 0 0.43334 0.400577 0.141292 10.8335 10.0144 3.5323 1.71196 0.65546 1.22434 -43.5866 33.7911 42.6198 
9412 1 1 2.38762 7.30299 1.6764 1 0 1 0.0955048 0.29212 0.0670558 27.3876 7.30299 26.6764 -0.122042 -0.85533 0.826401 -8.45313 6.87551 10.5255 
284 1 1 9.53839 -0.00100354 2.42439 0 0 0 0.381536 -4.01415e-05 0.0969758 9.53839 -0.00100354 2.42439 -0.232633 -0.785107 0.612572 -0.0928341 -4.99317 6.18529 
138 1 1 10.9861 5.23026 3.09161 0 0 0 0.439446 0.20921 0.123665 10.9861 5.23026 3.09161 -0.174585 -0.71541 0.18622 -14.945 -10.8355 -25.9895 
11268 1 1 11.429 11.6882 6.24236 0 0 0 0.457159 0.467528 0.249694 11.429 11.6882 6.24236 -0.73827 -0.897388 1.30056 3.46229 -24.9707 2.00939 
1639 1 1 6.12352 11.031 4.84821 0 0 0 0.244941 0.441239 0.193929 6.12352 11.031 4.84821 -0.434997 -0.131801 -1.56779 -4.32278 43.1658 -2.39626 
8100 1 1 1.06714 10.2152 3.36991 1 0 0 0.0426858 0.408609 0.134796 26.0671 10.2152 3.36991 -0.1084 0.838587 0.383748 -18.7388 -2.54112 -0.413975 
700 1 1 3.38777 0.0877591 2.95913 0 0 0 0.135511 0.00351037 0.118365 3.38777 0.0877591 2.95913 0.718561 -0.498444 -0.935872 40.4652 -19.2776 -1.81462 
3245 1 1 1.30393 3.52568 1.278 0 0 1 0.0521574 0.141027 0.0511198 1.30393 3.52568 26.278 0.553424 0.54652 -2.19739 -0.280659 -2.03996 -5.229 
170 1 1 4.19977 9.94009 3.2596 0 0 0 0.167991 0.397604 0.130384 4.19977 9.94009 3.2596 0.427549 -0.3513 -1.28545 6.15142 -7.35146 -21.0951 
3271 1 1 2.94109 6.02976 0.391782 0 0 1 0.117644 0.24119 0.0156713 2.94109 6.02976 25.3918 1.38756 -0.964314 0.705519 -34.1561 26.0087 30.222 
9658 1 1 0.495912 10.2821 0.50013 1 0 1 0.0198365 0.411285 0.0200052 25.4959 10.2821 25.5001 -1.70268 0.0795375 1.03533 -12.2305 -1.99953 -12.4531 
7038 1 1 12.247 5.13707 2.40532 0 0 0 0.48988 0.205483 0.0962128 12.247 5.13707 2.40532 -0.314231 -0.599213 0.515175 7.02775 -12.6142 0.259742 
4108 1 1 1.09652 12.5481 1.4897 0 0 0 0.0438607 0.501922 0.0595878 1.09652 12.5481 1.4897 0.136457 2.04805 -0.239321 11.3795 2.55605 13.3993 
3808 1 1 4.70109 3.43404 4.64669 0 1 0 0.188044 0.137362 0.185867 4.70109 28.434 4.64669 2.48799 0.422331 -0.512101 -13.7515 -29.3217 -0.453755 
966 1 1 6.56227 0.137315 5.14815 0 0 0 0.262491 0.00549258 0.205926 6.56227 0.137315 5.14815 -0.4564 0.888599 -0.125937 5.85604 -1.23478 -30.6958 
775 1 1 4.65294 4.80391 0.366508 0 0 0 0.186118 0.192157 0.0146603 4.65294 4.80391 0.366508 0.0583476 0.659531 1.44114 4.22123 21.0362 -9.52904 
7296 1 1 11.1136 6.06333 3.75324 0 0 0 0.444545 0.242533 0.15013 11.1136 6.06333 3.75324 -0.507824 0.106993 -0.633922 -29.3837 -2.52415 -10.7488 
207 1 1 11.988 11.3806 3.53193 0 0 0 0.479521 0.455226 0.141277 11.988 11.3806 3.53193 0.787146 -0.39115 0.254009 -12.455 -12.2527 9.21287 
11297 1 1 10.6479 12.366 6.11585 0 0 0 0.425917 0.494639 0.244634 10.6479 12.366 6.11585 0.173302 -0.00930902 -0.427633 -24.3267 -9.98268 2.18551 
7189 1 1 12.2379 12.0488 4.4299 0 0 0 0.489516 0.481953 0.177196 12.2379 12.0488 4.4299 0.137553 -0.44447 -0.507821 18.3956 -27.0503 4.41785 
3620 1 1 2.06743 9.36716 3.33086 0 0 0 0.0826973 0.374687 0.133235 2.06743 9.36716 3.33086 -0.887894 0.854418 0.345455 0.22962 -0.533512 -5.01994 
6959 1 1 1.37548 7.04691 3.3335 1 0 0 0.0550194 0.281876 0.13334 26.3755 7.04691 3.3335 1.01605 -0.367068 -0.510465 0.655135 -13.4421 -9.72523 
3850 1 1 5.63057 12.05 5.75325 0 0 0 0.225223 0.481998 0.23013 5.63057 12.05 5.75325 0.809321 2.52479 -0.257119 -1.86673 -20.8781 15.9576 
107 1 1 8.14144 3.6766 3.0355 0 0 0 0.325657 0.147064 0.12142 8.14144 3.6766 3.0355 1.96859 0.488079 0.464515 20.6294 26.0857 14.908 
4070 1 1 5.71535 10.1931 4.35599 0 0 0 0.228614 0.407725 0.17424 5.71535 10.1931 4.35599 0.581703 -0.177166 -1.31843 -12.4121 -1.64614 -14.4924 
187 1 1 0.596495 8.83717 3.05839 0 0 0 0.0238598 0.353487 0.122336 0.596495 8.83717 3.05839 -0.0783163 -0.578035 -0.902631 -12.0596 15.1441 -9.08298 
872 1 1 8.89965 11.1773 2.08776 0 0 0 0.355986 0.447093 0.0835103 8.89965 11.1773 2.08776 0.782463 -0.283841 -0.340292 -7.62698 1.80398 -15.2998 
741 1 1 0.106169 1.38057 5.41136 0 0 0 0.00424676 0.0552228 0.216454 0.106169 1.38057 5.41136 0.639975 1.56285 0.29223 18.8736 21.4795 -24.7272 
470 1 1 7.92647 1.03889 2.01032 0 0 0 0.317059 0.0415558 0.0804129 7.92647 1.03889 2.01032 0.0106907 0.939148 1.22041 -22.7282 1.3972 27.1184 
11063 1 1 5.09115 9.40809 3.6885 1 0 0 0.203646 0.376324 0.14754 30.0911 9.40809 3.6885 -0.350873 1.41058 -2.07881 3.9937 6.24241 -9.54039 
557 1 1 9.60018 6.89203 1.2351 0 0 0 0.384007 0.275681 0.0494041 9.60018 6.89203 1.2351 0.433799 0.311122 -0.362099 19.8306 36.2568 3.07292 
3582 1 1 2.4086 0.470867 1.29344 0 1 0 0.0963441 0.0188347 0.0517374 2.4086 25.4709 1.29344 0.978883 -0.299317 0.600192 1.67277 14.6554 2.74255 
238 1 1 11.1931 3.62292 0.770448 0 0 0 0.447723 0.144917 0.0308179 11.1931 3.62292 0.770448 0.451258 -1.26531 -0.314373 1.61285 -52.3354 26.0222 
6488 1 1 9.53374 2.83986 3.46473 0 1 1 0.381349 0.113594 0.138589 9.53374 27.8399 28.4647 0.83125 -1.74931 -0.515419 22.7432 0.87925 1.20865 
3603 1 1 4.61515 9.64352 1.15043 0 0 0 0.184606 0.385741 0.0460173 4.61515 9.64352 1.15043 2.00839 0.232225 0.666581 14.6519 -25.272 20.0334 
505 1 1 11.2354 2.27491 5.68697 0 0 0 0.449417 0.0909963 0.227479 11.2354 2.27491 5.68697 0.0632508 -0.396641 -0.261729 12.0394 -38.3641 -19.4261 
463 1 1 1.91965 0.824716 4.04205 0 0 0 0.0767862 0.0329886 0.161682 1.91965 0.824716 4.04205 -0.399331 -1.07052 2.43659 -8.97403 -1.16955 -10.3988 
3369 1 1 3.53007 11.4476 3.9905 0 0 1 0.141203 0.457904 0.15962 3.53007 11.4476 28.9905 -0.13001 0.222167 -2.69495e-05 31.8699 30.7016 -14.699 
3666 1 1 2.28396 11.5094 1.0562 0 0 0 0.0913583 0.460375 0.0422478 2.28396 11.5094 1.0562 0.849237 -2.16732 -0.44841 -3.73917 -6.19513 -2.21331 
805 1 1 3.72049 11.984 2.94978 0 0 0 0.14882 0.479358 0.117991 3.72049 11.984 2.94978 0.543191 -0.402279 0.323701 -4.14216 2.66498 -1.32642 
527 1 1 3.1698 1.33958 2.81718 0 0 0 0.126792 0.0535832 0.112687 3.1698 1.33958 2.81718 1.53208 -0.802097 0.167913 27.7527 13.9713 7.38508 
8071 1 1 0.52794 10.2989 5.59686 1 0 0 0.0211176 0.411958 0.223874 25.5279 10.2989 5.59686 -0.0669538 0.448569 -1.15571 22.3713 -3.64887 -24.0889 
165 1 1 8.34491 11.7591 1.41468 0 0 0 0.333796 0.470363 0.0565871 8.34491 11.7591 1.41468 -0.615245 -0.00859167 0.464094 -7.84605 -0.106681 -12.4902 
3781 1 1 6.53736 1.58177 0.545259 0 1 0 0.261494 0.0632708 0.0218104 6.53736 26.5818 0.545259 -0.630596 -0.619312 -2.11285 42.8761 -43.9606 -53.8663 
22 1 1 8.39767 3.5426 1.95702 0 0 0 0.335907 0.141704 0.0782807 8.39767 3.5426 1.95702 -1.22805 0.234179 -0.523249 4.27269 -6.22445 13.4683 