ITEM: TIMESTEP
100000
ITEM: NUMBER OF ATOMS
13500
ITEM: BOX BOUNDS
0 25
0 25
0 25
ITEM: ATOMS id type mass x y z ix iy iz xs ys zs xu yu zu vx vy vz fx fy fz 
5936 1 1 5.50456 0.534344 1.89219 0 1 1 0.220182 0.0213737 0.0756876 5.50456 25.5343 26.8922 -0.421734 0.532739 0.787582 6.98128 11.6636 7.46095 
224 1 1 8.96998 11.786 0.982591 0 0 0 0.358799 0.471442 0.0393037 8.96998 11.786 0.982591 -0.780355 -0.817829 -0.357834 -19.4291 -31.6948 4.99357 
6161 1 1 12.3911 12.3535 2.68935 0 0 1 0.495646 0.494141 0.107574 12.3911 12.3535 27.6893 1.22755 0.883312 -0.080583 8.28199 -14.491 -7.46206 
13187 1 1 10.2456 0.399414 2.03557 0 1 1 0.409825 0.0159765 0.0814226 10.2456 25.3994 27.0356 -0.322445 -1.32786 0.529348 -1.26909 10.9664 27.7019 
2658 1 1 11.467 8.42606 0.542688 0 0 1 0.458679 0.337042 0.0217075 11.467 8.42606 25.5427 0.657754 1.51683 1.10685 0.203021 -8.96854 -11.5101 
11819 1 1 -0.0522358 11.3783 2.63299 1 0 1 -0.00208943 0.455133 0.10532 24.9478 11.3783 27.633 -0.455393 0.332225 -0.483603 -9.88554 -40.5424 15.1962 
10643 1 1 0.444997 4.49808 3.04438 1 0 0 0.0177999 0.179923 0.121775 25.445 4.49808 3.04438 0.121641 0.544471 -1.23393 17.1252 4.89464 -4.68944 
4510 1 1 5.12187 12.463 3.43579 0 0 0 0.204875 0.498519 0.137431 5.12187 12.463 3.43579 0.348863 0.212001 -0.304066 12.9297 -42.0071 7.39476 
3224 1 1 8.6097 7.93997 1.09932 0 0 1 0.344388 0.317599 0.0439728 8.6097 7.93997 26.0993 0.157569 -0.899121 -0.42419 -20.8658 -37.7444 2.41117 
2993 1 1 4.44887 1.08783 0.852038 0 0 1 0.177955 0.0435133 0.0340815 4.44887 1.08783 25.852 -1.54931 2.38804 0.144591 6.95822 -16.2744 -3.42525 
2868 1 1 0.361997 5.34013 3.8378 0 0 1 0.0144799 0.213605 0.153512 0.361997 5.34013 28.8378 0.388827 -1.43342 -0.238815 11.7861 -6.63169 -5.99294 
10885 1 1 0.142794 11.1715 1.52302 0 0 0 0.00571177 0.446859 0.0609206 0.142794 11.1715 1.52302 -0.263594 -0.0649431 -1.20252 -0.858038 -9.91753 2.74826 
533 1 1 4.59206 3.02904 5.61129 0 0 0 0.183683 0.121162 0.224452 4.59206 3.02904 5.61129 -0.376758 0.428835 0.735029 -4.31142 11.8995 5.37434 
5357 1 1 12.0387 0.198432 3.16979 0 1 1 0.48155 0.00793728 0.126791 12.0387 25.1984 28.1698 0.955243 0.984665 -0.261839 5.64351 -9.90485 -2.49207 
44 1 1 3.981 3.50446 1.47753 0 0 0 0.15924 0.140178 0.0591013 3.981 3.50446 1.47753 0.989991 -0.564543 0.686756 12.885 4.87319 -18.6567 
9849 1 1 3.27158 8.62948 2.23408 1 0 1 0.130863 0.345179 0.0893633 28.2716 8.62948 27.2341 -0.00911714 0.332818 0.968189 -0.376563 -3.64666 -25.2387 
10993 1 1 5.68 6.83507 1.6499 1 1 0 0.2272 0.273403 0.0659959 30.68 31.8351 1.6499 -0.547304 -1.07065 0.241017 -30.2506 -37.1298 -24.694 
3258 1 1 12.4885 2.94468 5.39109 0 0 1 0.499542 0.117787 0.215644 12.4885 2.94468 30.3911 0.986373 0.840966 0.95615 -10.9556 0.783376 10.1758 
7804 1 1 5.56484 3.55616 5.46883 0 0 0 0.222594 0.142246 0.218753 5.56484 3.55616 5.46883 1.14897 -0.0132263 -1.04804 0.677965 -27.1467 3.53337 
8774 1 1 4.69634 5.35826 2.55746 1 0 0 0.187853 0.21433 0.102298 29.6963 5.35826 2.55746 -0.775005 -1.25632 -0.301341 -33.0312 -17.1169 5.43668 
7377 1 1 3.4058 6.68117 2.28773 1 0 0 0.136232 0.267247 0.0915094 28.4058 6.68117 2.28773 0.263679 1.74673 0.102523 35.0387 25.6258 25.9629 
321 1 1 0.664709 9.715 2.81197 0 0 0 0.0265884 0.3886 0.112479 0.664709 9.715 2.81197 0.45395 -0.248817 -0.146408 13.3147 -7.03296 19.9315 
11664 1 1 11.2664 -0.0609914 3.94663 0 0 0 0.450655 -0.00243966 0.157865 11.2664 -0.0609914 3.94663 -0.756537 -0.666974 0.186552 0.267546 7.32607 -0.236159 
8792 1 1 1.29405 10.5733 4.77525 1 0 1 0.051762 0.422933 0.19101 26.2941 10.5733 29.7753 -0.978687 1.03248 -0.713359 -8.16194 -17.3749 -18.3462 
341 1 1 5.84454 4.06953 4.32566 0 0 0 0.233782 0.162781 0.173026 5.84454 4.06953 4.32566 0.3473 0.852215 -0.0370177 -9.39286 -5.93325 7.50435 
2224 1 1 3.46137 9.02131 3.15551 1 0 1 0.138455 0.360852 0.12622 28.4614 9.02131 28.1555 -0.174477 1.66374 1.09764 -21.4986 4.86243 26.8191 
4293 1 1 1.97575 7.11051 1.1147 0 0 1 0.0790301 0.28442 0.0445879 1.97575 7.11051 26.1147 -0.788877 -0.37133 -0.679257 -0.911473 33.7836 -12.4951 
886 1 1 10.9447 1.12966 1.7238 0 0 0 0.437789 0.0451864 0.0689521 10.9447 1.12966 1.7238 -0.774129 0.52849 2.43863 -11.1983 0.181589 -1.62493 
2492 1 1 7.81962 11.0706 0.395916 0 0 1 0.312785 0.442822 0.0158367 7.81962 11.0706 25.3959 -0.325193 1.1829 0.229509 -30.6223 0.252401 28.0607 
6358 1 1 3.31467 7.98908 -0.055062 0 0 1 0.132587 0.319563 -0.00220248 3.31467 7.98908 24.9449 0.388238 -0.524866 0.602624 4.04693 -14.7511 12.752 
3100 1 1 7.28678 12.5501 1.56252 0 0 1 0.291471 0.502004 0.0625007 7.28678 12.5501 26.5625 1.00001 1.14904 -1.45942 -18.406 -0.248642 3.61416 
3358 1 1 4.6274 6.38153 2.08478 0 0 1 0.185096 0.255261 0.0833911 4.6274 6.38153 27.0848 0.44106 0.590541 0.257273 7.03957 -2.86316 6.8745 
8171 1 1 9.20291 1.21233 3.62976 0 0 0 0.368116 0.0484934 0.14519 9.20291 1.21233 3.62976 -1.05465 1.49622 0.83152 -6.10345 0.328763 -9.79762 
1664 1 1 7.66818 12.15 0.312553 0 0 1 0.306727 0.486002 0.0125021 7.66818 12.15 25.3126 1.48205 -0.821807 -1.82669 6.88664 1.74752 4.49249 
9021 1 1 10.0933 5.00966 2.83956 0 0 0 0.403732 0.200386 0.113583 10.0933 5.00966 2.83956 -0.881076 0.574239 0.103552 5.97381 1.17457 13.9885 
10150 1 1 11.7433 3.67779 1.22343 0 0 0 0.469732 0.147111 0.0489374 11.7433 3.67779 1.22343 -0.00853646 1.01273 1.14525 15.8702 7.90591 16.5584 
96 1 1 11.9904 3.60515 4.46566 0 0 0 0.479617 0.144206 0.178626 11.9904 3.60515 4.46566 -0.622669 -0.00714999 -0.417003 3.71868 -2.32944 -19.7497 
3093 1 1 2.75829 11.761 3.29919 0 0 1 0.110331 0.470439 0.131967 2.75829 11.761 28.2992 1.2602 -0.399699 1.56442 3.72632 -15.3252 19.4646 
8200 1 1 6.58463 11.0642 2.89784 0 0 1 0.263385 0.442568 0.115913 6.58463 11.0642 27.8978 -0.130407 1.1446 0.734668 8.4771 -8.89843 -6.16062 
2306 1 1 10.5107 7.69603 0.554001 0 0 1 0.420426 0.307841 0.0221601 10.5107 7.69603 25.554 -0.817671 -1.36458 -0.280741 12.1046 17.5755 9.89483 
3323 1 1 11.5385 7.42478 2.44725 0 0 1 0.46154 0.296991 0.0978901 11.5385 7.42478 27.4473 1.08701 -0.521855 0.191199 -10.3484 4.53621 40.0204 
3301 1 1 0.0829202 1.31395 4.85391 0 0 1 0.00331681 0.0525579 0.194157 0.0829202 1.31395 29.8539 0.213824 -0.977778 -0.437795 0.477147 1.77101 9.93407 
13034 1 1 10.3092 8.48298 2.38688 0 0 1 0.412367 0.339319 0.0954751 10.3092 8.48298 27.3869 0.191826 -1.39255 -0.193101 -16.678 -38.0057 22.0748 
13165 1 1 1.72038 2.83108 1.61688 1 1 1 0.068815 0.113243 0.064675 26.7204 27.8311 26.6169 0.0380236 -0.203561 0.656471 25.4422 -37.5375 -19.0734 
9490 1 1 8.44569 1.97407 1.64454 0 0 1 0.337827 0.0789629 0.0657816 8.44569 1.97407 26.6445 0.263418 0.730581 0.365543 0.618664 1.21451 -1.1335 
8949 1 1 2.87294 9.74519 0.33696 1 0 0 0.114918 0.389808 0.0134784 27.8729 9.74519 0.33696 0.718398 -0.210602 0.916417 12.3098 -17.5426 -6.2813 
4488 1 1 7.85816 7.1808 0.565331 0 1 0 0.314326 0.287232 0.0226132 7.85816 32.1808 0.565331 -1.54099 -1.92582 0.715208 -6.34621 0.468301 36.2479 
1069 1 1 3.78731 11.721 2.74115 0 0 0 0.151493 0.468842 0.109646 3.78731 11.721 2.74115 -0.478641 1.19635 1.44009 3.28888 2.64905 -0.542068 
3673 1 1 0.574782 12.0004 3.19001 0 0 0 0.0229913 0.480014 0.1276 0.574782 12.0004 3.19001 -0.372746 -1.22834 -0.00981944 -26.1911 -23.1712 -34.752 
355 1 1 1.82185 10.6289 3.49729 0 0 0 0.0728739 0.425156 0.139892 1.82185 10.6289 3.49729 0.00495437 0.29255 -2.01985 -0.206641 -21.6223 -23.3619 
2853 1 1 3.64792 7.72456 1.77297 0 0 1 0.145917 0.308982 0.0709188 3.64792 7.72456 26.773 -0.934784 1.23383 -1.26346 14.5299 -22.6812 31.925 
6143 1 1 6.65221 10.4546 0.699643 0 0 1 0.266088 0.418183 0.0279857 6.65221 10.4546 25.6996 0.310776 1.08741 0.742598 13.7682 33.9041 15.122 
1047 1 1 2.22394 8.95604 0.58305 0 0 1 0.0889578 0.358241 0.023322 2.22394 8.95604 25.5831 -0.0937203 0.15328 1.44434 -1.53296 18.798 1.564 
647 1 1 9.51417 8.28171 0.783288 0 0 0 0.380567 0.331268 0.0313315 9.51417 8.28171 0.783288 -0.139652 0.525792 0.145501 18.8447 2.80972 -2.25732 
2184 1 1 12.0604 10.182 1.55875 0 0 0 0.482416 0.407281 0.0623499 12.0604 10.182 1.55875 -0.0625928 -0.209034 -0.260464 -2.80404 1.90762 -7.28549 
1799 1 1 11.3713 7.625 3.81827 0 0 0 0.45485 0.305 0.152731 11.3713 7.625 3.81827 0.446279 0.931927 -1.64176 -12.6143 21.7778 8.41872 
1087 1 1 5.5927 7.37561 2.44398 0 0 0 0.223708 0.295024 0.0977592 5.5927 7.37561 2.44398 -0.413347 1.70184 0.587508 -25.6922 -1.78029 46.6677 
11521 1 1 10.3514 4.22892 3.52863 0 0 0 0.414058 0.169157 0.141145 10.3514 4.22892 3.52863 -1.15641 0.280184 -0.74798 0.234296 -16.0264 -21.8637 
1746 1 1 10.2184 0.317693 5.46109 0 0 0 0.408735 0.0127077 0.218444 10.2184 0.317693 5.46109 0.194621 -0.901689 -0.39004 -9.74755 17.9877 -18.8347 
2160 1 1 8.70795 8.92419 1.12381 0 0 1 0.348318 0.356968 0.0449524 8.70795 8.92419 26.1238 -1.16933 -0.248365 -1.62088 7.87027 21.0273 17.8396 
1196 1 1 8.02362 0.173135 2.15272 0 0 0 0.320945 0.00692539 0.0861089 8.02362 0.173135 2.15272 1.47506 -0.131734 -0.91845 68.246 -5.23341 -0.686261 
6404 1 1 6.37048 9.62468 0.242706 0 0 1 0.254819 0.384987 0.00970825 6.37048 9.62468 25.2427 0.16716 -0.630163 1.48423 6.73932 -29.3205 -21.4255 
12123 1 1 10.1474 4.15587 2.27134 0 1 1 0.405898 0.166235 0.0908534 10.1474 29.1559 27.2713 -1.24399 -0.55293 -0.873527 -41.5476 1.40816 -18.9271 
2470 1 1 9.29958 1.37036 1.70447 0 0 1 0.371983 0.0548144 0.0681786 9.29958 1.37036 26.7045 -1.31916 -0.0283462 -1.12171 21.2289 -5.81067 -4.71898 
9120 1 1 3.80277 8.87715 0.450446 1 0 1 0.152111 0.355086 0.0180179 28.8028 8.87715 25.4504 -0.267891 0.221585 -0.285003 -9.59133 0.080604 4.58969 
9777 1 1 2.19893 11.6215 0.745739 0 0 1 0.0879571 0.46486 0.0298296 2.19893 11.6215 25.7457 1.5516 0.0992009 0.387326 6.62818 7.10599 10.5597 
602 1 1 11.6774 8.54117 2.35885 0 0 0 0.467094 0.341647 0.094354 11.6774 8.54117 2.35885 0.503805 -0.00950827 -0.807512 19.173 23.7831 -37.3082 
9420 1 1 8.37892 8.51333 3.23447 1 0 1 0.335157 0.340533 0.129379 33.3789 8.51333 28.2345 -0.925498 -1.57563 0.304522 29.5417 -22.7868 0.0801791 
10758 1 1 8.66454 11.461 5.22972 0 0 0 0.346581 0.458441 0.209189 8.66454 11.461 5.22972 1.486 -1.01776 -0.812055 2.77398 -8.51117 -4.0798 
7242 1 1 6.19828 3.4083 3.46652 1 0 0 0.247931 0.136332 0.138661 31.1983 3.4083 3.46652 0.46764 0.125297 -0.445402 -3.00655 8.7485 -4.22929 
2824 1 1 5.52889 5.81339 2.30527 0 0 1 0.221156 0.232536 0.0922109 5.52889 5.81339 27.3053 -0.0830092 1.00407 0.686136 35.3912 16.6935 -23.1315 
13140 1 1 10.859 8.95952 4.92563 0 0 1 0.434361 0.358381 0.197025 10.859 8.95952 29.9256 -1.57344 0.513079 0.193282 -28.5999 6.07784 -46.9217 
256 1 1 0.963038 4.68583 1.57414 0 0 0 0.0385215 0.187433 0.0629656 0.963038 4.68583 1.57414 -0.58421 1.28088 -0.118663 -7.8038 5.11312 -17.3986 
3049 1 1 6.61662 6.72725 1.90531 0 0 1 0.264665 0.26909 0.0762122 6.61662 6.72725 26.9053 0.753396 -0.105098 0.818587 44.9791 -31.0204 10.2639 
8847 1 1 11.7503 6.80329 3.4124 0 0 0 0.470012 0.272132 0.136496 11.7503 6.80329 3.4124 -0.369372 0.507038 -0.154637 11.4042 1.28043 -3.07776 
13476 1 1 9.1608 8.45144 2.00075 0 1 1 0.366432 0.338058 0.0800298 9.1608 33.4514 27.0007 0.407554 0.329961 2.84734 7.37022 27.5592 -0.0535599 
574 1 1 0.263536 2.66895 4.49215 0 0 0 0.0105414 0.106758 0.179686 0.263536 2.66895 4.49215 0.771355 -1.2954 -1.31733 -0.766165 -2.15011 -5.94549 
1082 1 1 10.4627 4.78503 0.943289 0 0 0 0.418507 0.191401 0.0377316 10.4627 4.78503 0.943289 -0.720628 -0.230963 0.576655 12.1816 -3.29584 12.4809 
1033 1 1 2.80247 12.0034 2.30073 0 0 0 0.112099 0.480137 0.0920294 2.80247 12.0034 2.30073 0.234253 0.972346 -1.03469 6.35152 -39.7367 -14.3566 
2946 1 1 5.06959 8.46951 1.02865 0 0 1 0.202784 0.33878 0.0411459 5.06959 8.46951 26.0286 0.561462 0.822254 -1.296 -2.13264 -7.16724 0.360374 
9731 1 1 10.3126 10.3626 4.59159 0 0 1 0.412503 0.414502 0.183664 10.3126 10.3626 29.5916 0.743365 -0.688447 1.9069 1.51915 -3.47999 -22.6563 
2379 1 1 10.2386 11.6869 4.00149 0 0 1 0.409543 0.467476 0.160059 10.2386 11.6869 29.0015 -0.532312 0.65797 -0.825915 -13.9779 6.6189 -35.1352 
4128 1 1 4.33951 0.410941 4.55405 0 1 0 0.173581 0.0164376 0.182162 4.33951 25.4109 4.55405 0.418745 -1.41242 -0.00322629 -3.90109 -15.7222 -35.0014 
1113 1 1 1.41223 5.46548 4.35711 0 0 0 0.0564892 0.218619 0.174285 1.41223 5.46548 4.35711 1.25016 0.550729 0.331954 5.12381 -11.1788 17.167 
6598 1 1 9.85692 9.57778 5.21397 0 1 1 0.394277 0.383111 0.208559 9.85692 34.5778 30.214 -0.464712 -0.281609 0.151607 -3.66864 -1.55022 -9.80777 
1421 1 1 10.815 12.2755 3.36642 0 -1 0 0.432599 0.491021 0.134657 10.815 -12.7245 3.36642 1.52259 0.450728 0.956016 -13.7008 -7.14517 11.7757 
1205 1 1 8.67806 1.85737 5.53592 0 0 0 0.347122 0.0742949 0.221437 8.67806 1.85737 5.53592 1.19485 0.306245 -0.813947 -16.6954 2.22816 -0.246888 
1595 1 1 5.43124 11.5791 1.4534 0 0 1 0.21725 0.463162 0.0581362 5.43124 11.5791 26.4534 0.793263 1.5134 -0.824598 0.565149 1.02706 1.30709 
803 1 1 8.6087 3.24937 6.11968 0 0 0 0.344348 0.129975 0.244787 8.6087 3.24937 6.11968 0.448386 1.94344 -0.750042 17.2021 -6.83488 -7.15287 
2679 1 1 5.76769 10.5621 3.29823 0 0 1 0.230708 0.422483 0.131929 5.76769 10.5621 28.2982 1.81184 1.08899 0.390767 1.71075 -45.5237 23.1265 
7521 1 1 4.93456 10.1998 2.63692 0 0 0 0.197382 0.407992 0.105477 4.93456 10.1998 2.63692 0.513352 0.106069 -1.53446 17.2812 0.888996 4.88807 
3972 1 1 2.33616 3.46425 4.30274 0 0 0 0.0934463 0.13857 0.17211 2.33616 3.46425 4.30274 0.798179 -0.150899 -0.798703 -12.0099 0.0444901 -0.298046 
415 1 1 3.08896 10.143 3.49674 0 0 0 0.123559 0.405721 0.139869 3.08896 10.143 3.49674 0.708495 0.17218 -0.06287 -13.5711 1.72837 11.8074 
8750 1 1 1.3224 11.9413 3.79482 1 0 0 0.0528962 0.477653 0.151793 26.3224 11.9413 3.79482 1.54351 -1.30091 0.300443 34.7863 -0.647774 29.7204 
7872 1 1 10.3962 2.17791 1.56742 1 0 0 0.415846 0.0871166 0.0626967 35.3962 2.17791 1.56742 0.809774 0.848112 -1.80085 6.1931 -7.03972 -5.41003 
2943 1 1 4.99848 -0.0164009 1.17035 0 0 1 0.199939 -0.000656035 0.0468142 4.99848 -0.0164009 26.1704 -0.964241 1.03845 0.249314 -19.4674 21.7447 -10.179 
4422 1 1 3.08236 1.46259 0.788361 0 1 0 0.123294 0.0585034 0.0315344 3.08236 26.4626 0.788361 -1.34841 1.19671 0.22736 -19.4778 10.8028 -36.886 
4453 1 1 6.40984 12.4115 2.07701 0 1 0 0.256393 0.496458 0.0830805 6.40984 37.4115 2.07701 -0.434201 0.158326 0.15649 11.6169 -10.1181 -17.6151 
1334 1 1 5.98966 5.2021 1.29178 0 0 0 0.239586 0.208084 0.0516711 5.98966 5.2021 1.29178 2.09752 -1.33268 0.92853 7.00528 -2.23783 1.553 
9790 1 1 5.04758 7.51966 0.0305396 1 0 1 0.201903 0.300787 0.00122158 30.0476 7.51966 25.0305 -1.3987 -1.45737 -0.559583 0.353179 7.60739 -8.12116 
9143 1 1 7.0154 4.13028 0.98204 1 0 1 0.280616 0.165211 0.0392816 32.0154 4.13028 25.982 -0.298708 -1.19104 0.877028 -4.20103 22.641 2.47436 
2814 1 1 6.28439 2.61371 2.7432 0 0 1 0.251376 0.104548 0.109728 6.28439 2.61371 27.7432 0.210945 -0.468898 1.44667 -4.62437 -13.7399 -0.111545 
1149 1 1 0.549388 8.50403 1.44571 0 0 0 0.0219755 0.340161 0.0578284 0.549388 8.50403 1.44571 -0.277709 0.152856 0.256982 -3.78375 18.0605 -19.0598 
7060 1 1 1.58823 8.01577 1.47493 1 0 0 0.0635292 0.320631 0.0589974 26.5882 8.01577 1.47493 -0.846778 0.357535 -0.120083 -22.7405 7.81237 4.76242 
9969 1 1 7.07658 2.60214 1.82973 0 0 1 0.283063 0.104086 0.0731891 7.07658 2.60214 26.8297 -0.616954 0.928969 -0.524584 9.40497 -10.5227 -1.98077 
504 1 1 0.431036 0.21419 4.51329 0 0 0 0.0172414 0.00856762 0.180532 0.431036 0.21419 4.51329 0.868619 -0.146597 -0.481719 -33.4123 -34.6902 -7.15784 
12907 1 1 11.7079 11.8008 5.80235 0 0 1 0.468316 0.472034 0.232094 11.7079 11.8008 30.8024 -0.138008 0.518893 0.115636 15.0675 1.8236 11.4043 
2778 1 1 3.65411 2.64429 1.86364 0 0 1 0.146164 0.105772 0.0745455 3.65411 2.64429 26.8636 0.830663 -1.48718 0.808574 -0.170368 -19.9727 17.5318 
8866 1 1 6.31676 4.10583 0.214582 0 0 1 0.252671 0.164233 0.00858328 6.31676 4.10583 25.2146 -1.0265 0.799475 -1.24727 -22.7966 12.6055 -12.1975 
13303 1 1 10.9904 3.84812 2.64563 0 0 1 0.439616 0.153925 0.105825 10.9904 3.84812 27.6456 -1.77099 1.65866 -0.321648 0.827571 -15.8834 -8.5508 
8607 1 1 10.9314 0.950374 4.76579 1 0 1 0.437256 0.0380149 0.190632 35.9314 0.950374 29.7658 -0.656482 -0.498876 -0.177806 -37.0736 -12.8249 -19.3839 
645 1 1 9.33999 9.47027 3.03571 0 0 0 0.3736 0.378811 0.121428 9.33999 9.47027 3.03571 0.90766 -2.0489 3.46473 10.5274 1.6745 11.1893 
6561 1 1 3.38881 3.73351 2.24667 0 0 1 0.135552 0.14934 0.0898669 3.38881 3.73351 27.2467 0.182639 0.686522 0.084115 7.17935 -3.96486 18.8973 
322 1 1 2.40643 8.63902 1.6159 0 0 0 0.0962571 0.345561 0.0646358 2.40643 8.63902 1.6159 0.406465 -0.419735 0.186079 -14.7638 40.0204 -11.145 
4463 1 1 1.15421 11.3326 1.30945 0 1 0 0.0461684 0.453303 0.0523779 1.15421 36.3326 1.30945 0.766633 1.0374 -0.429241 11.6775 5.57686 -0.103241 
1985 1 1 1.05002 7.44551 4.13714 0 0 0 0.0420008 0.29782 0.165486 1.05002 7.44551 4.13714 -1.35964 -0.0280041 1.34441 -18.4681 5.23493 43.3097 
3465 1 1 7.71131 8.22725 0.310025 0 0 0 0.308452 0.32909 0.012401 7.71131 8.22725 0.310025 -1.27096 0.450641 0.930508 -5.24641 -3.65792 2.39393 
10294 1 1 5.01611 1.06806 2.80664 0 1 0 0.200644 0.0427225 0.112266 5.01611 26.0681 2.80664 2.40615 0.601781 -1.29626 -21.5257 -12.5984 -12.4134 
3558 1 1 6.61992 0.891483 4.77699 0 1 0 0.264797 0.0356593 0.19108 6.61992 25.8915 4.77699 -0.060719 0.3829 1.84813 -2.01953 9.22706 -3.4861 
1114 1 1 0.340181 5.60639 2.81303 0 0 0 0.0136072 0.224256 0.112521 0.340181 5.60639 2.81303 -0.303456 -0.0497814 -0.473558 8.98473 29.0814 -0.148087 
2938 1 1 3.46061 2.99663 5.59922 0 0 1 0.138424 0.119865 0.223969 3.46061 2.99663 30.5992 0.695747 0.235726 0.504747 18.3764 28.6913 -4.79933 
3350 1 1 8.06309 0.121093 0.74061 0 1 1 0.322523 0.00484373 0.0296244 8.06309 25.1211 25.7406 1.4161 -1.49559 -1.57481 17.68 33.5757 39.2449 
1362 1 1 -0.135034 8.99845 0.516012 0 0 0 -0.00540137 0.359938 0.0206405 -0.135034 8.99845 0.516012 -1.7627 -1.59973 0.346287 4.49944 5.13546 31.1384 
8983 1 1 0.639331 5.31546 0.0637639 1 0 1 0.0255732 0.212618 0.00255056 25.6393 5.31546 25.0638 1.17003 -0.777467 -0.348845 16.3194 3.56303 -5.95301 
7549 1 1 6.78826 5.71756 1.98978 0 0 0 0.27153 0.228702 0.0795912 6.78826 5.71756 1.98978 -0.535152 -0.405419 -1.29937 1.14707 -19.0805 -32.501 
6931 1 1 5.82039 12.4668 5.24651 0 0 0 0.232816 0.498672 0.20986 5.82039 12.4668 5.24651 0.54934 -0.193305 -0.613316 -16.1604 -2.68122 28.352 
2909 1 1 11.0463 12.3826 2.34559 0 0 1 0.44185 0.495305 0.0938236 11.0463 12.3826 27.3456 -0.237719 0.995126 -0.334528 16.7812 -4.24772 -0.173392 
12520 1 1 12.2406 12.2404 1.13373 0 0 1 0.489624 0.489615 0.0453492 12.2406 12.2404 26.1337 1.14714 0.105388 -1.07564 13.1424 13.6445 -15.2427 
11455 1 1 10.6766 6.73787 3.62111 0 0 0 0.427063 0.269515 0.144844 10.6766 6.73787 3.62111 -0.56409 0.643736 -1.00024 41.422 9.94962 -14.3633 
5589 1 1 5.52778 0.98935 0.784901 0 1 0 0.221111 0.039574 0.031396 5.52778 25.9894 0.784901 0.794747 -0.0719417 0.757526 -18.6694 4.21637 -6.4954 
9283 1 1 4.17738 9.55832 2.62832 1 0 1 0.167095 0.382333 0.105133 29.1774 9.55832 27.6283 -0.72794 0.372907 -0.881052 -16.7553 3.17155 -19.3628 
1427 1 1 9.71456 2.12495 3.37652 0 0 0 0.388583 0.0849982 0.135061 9.71456 2.12495 3.37652 -1.14196 0.937056 -0.539964 6.05278 5.48557 -14.6119 
7646 1 1 2.32183 0.962278 1.49058 0 0 0 0.0928732 0.0384911 0.0596234 2.32183 0.962278 1.49058 -0.961032 0.593338 0.666289 5.26131 7.34813 -1.38226 
13248 1 1 7.13039 0.603172 0.386526 0 1 1 0.285216 0.0241269 0.015461 7.13039 25.6032 25.3865 -1.03527 0.725382 0.753926 24.1917 -11.0574 -8.47432 
5367 1 1 11.469 1.92237 0.850789 0 1 0 0.458761 0.076895 0.0340316 11.469 26.9224 0.850789 0.823064 0.235956 -0.103255 -2.4368 7.67177 2.73115 
2743 1 1 1.25585 2.91935 0.615315 0 0 1 0.0502342 0.116774 0.0246126 1.25585 2.91935 25.6153 0.280297 -1.40602 1.14673 2.62776 -0.85556 -16.7018 
11249 1 1 4.98642 1.56087 1.75966 1 1 0 0.199457 0.0624348 0.0703866 29.9864 26.5609 1.75966 0.157716 0.786977 -0.956007 0.808406 4.21613 -2.62721 
8576 1 1 7.31106 0.839451 3.6456 1 0 0 0.292443 0.0335781 0.145824 32.3111 0.839451 3.6456 -0.810793 1.07384 0.252107 24.7762 -35.1288 -12.2467 
8447 1 1 11.8444 6.10314 0.807968 0 0 1 0.473774 0.244126 0.0323187 11.8444 6.10314 25.808 -0.527905 -0.888126 -1.63927 -17.094 7.67154 -22.4572 
9885 1 1 6.44974 5.82928 2.90082 1 0 1 0.257989 0.233171 0.116033 31.4497 5.82928 27.9008 -1.52134 -0.85628 -0.0719074 -9.15026 4.42758 28.0675 
11104 1 1 8.38752 1.043 1.27315 0 0 1 0.335501 0.0417198 0.0509261 8.38752 1.043 26.2732 1.63189 0.630156 0.0833839 -23.0144 -7.88317 3.84108 
10023 1 1 6.04197 4.10128 1.25207 0 0 1 0.241679 0.164051 0.050083 6.04197 4.10128 26.2521 -0.673229 -0.586455 -0.255272 -15.9185 4.83619 9.9623 
8260 1 1 11.9929 0.88834 6.14898 0 0 0 0.479717 0.0355336 0.245959 11.9929 0.88834 6.14898 -1.51457 -0.935954 -0.0847425 -12.3777 1.87867 5.68437 
6380 1 1 3.19753 7.24093 0.91638 0 0 1 0.127901 0.289637 0.0366552 3.19753 7.24093 25.9164 1.38644 0.475548 -1.92731 -7.00921 -3.08109 -8.3694 
2509 1 1 2.37903 5.47 2.00292 0 0 0 0.0951614 0.2188 0.0801167 2.37903 5.47 2.00292 -0.222374 1.04347 -0.0999528 -10.4241 1.30739 2.66226 
9191 1 1 9.59733 8.64028 4.57045 0 0 1 0.383893 0.345611 0.182818 9.59733 8.64028 29.5705 -1.73141 0.487006 -0.258832 0.543845 -6.55025 14.9225 
13385 1 1 10.311 5.12818 3.97007 0 0 1 0.412439 0.205127 0.158803 10.311 5.12818 28.9701 0.662416 0.677382 -0.00880204 8.20783 12.6587 -12.8533 
6567 1 1 4.98002 6.96056 0.915492 0 0 1 0.199201 0.278422 0.0366197 4.98002 6.96056 25.9155 -0.0798442 0.510312 1.14213 -13.5344 -7.21773 9.76393 
2882 1 1 4.02542 9.8144 3.63928 0 0 1 0.161017 0.392576 0.145571 4.02542 9.8144 28.6393 -0.201839 0.856511 -0.149362 3.15313 -16.733 1.61881 
12828 1 1 7.58183 9.98283 0.157609 0 0 1 0.303273 0.399313 0.00630438 7.58183 9.98283 25.1576 0.847663 -1.27481 1.49014 -0.0579608 8.81516 25.1504 
6767 1 1 11.4308 10.7233 5.50764 0 -1 0 0.457231 0.428933 0.220306 11.4308 -14.2767 5.50764 -0.267449 1.36207 -0.742643 2.24523 46.4223 24.5317 
1801 1 1 2.55198 5.04846 3.35635 0 0 1 0.102079 0.201939 0.134254 2.55198 5.04846 28.3564 -0.198332 0.0871048 1.57634 -25.9036 14.1972 -35.6558 
2272 1 1 9.41072 2.6396 1.48411 0 0 1 0.376429 0.105584 0.0593643 9.41072 2.6396 26.4841 0.952485 -1.6458 0.566048 -26.9671 -14.1563 -19.0017 
3768 1 1 0.664149 0.616667 3.53461 0 1 0 0.026566 0.0246667 0.141385 0.664149 25.6167 3.53461 1.14445 1.19721 0.978104 36.4308 -8.11432 20.7407 
885 1 1 7.54962 10.5241 3.99896 0 0 0 0.301985 0.420965 0.159958 7.54962 10.5241 3.99896 0.947821 0.918333 -0.531839 8.99629 -5.47673 34.3168 
143 1 1 2.76775 1.96383 1.67007 0 0 0 0.11071 0.0785532 0.066803 2.76775 1.96383 1.67007 -0.278592 1.0841 0.938032 1.77779 -0.523155 22.496 
12743 1 1 6.22664 8.29489 0.927972 0 0 1 0.249066 0.331796 0.0371189 6.22664 8.29489 25.928 0.525231 0.866771 0.0202377 6.69819 26.5933 15.3122 
3081 1 1 5.1623 6.12806 0.207591 0 0 1 0.206492 0.245123 0.00830363 5.1623 6.12806 25.2076 -0.552422 2.90549 0.753794 4.15205 -1.67725 -2.44031 
2532 1 1 7.22845 5.96546 3.75707 0 0 1 0.289138 0.238618 0.150283 7.22845 5.96546 28.7571 0.0227784 0.504425 0.306432 19.6387 -8.4547 5.15237 
1630 1 1 0.276683 1.75166 3.90762 0 0 0 0.0110673 0.0700662 0.156305 0.276683 1.75166 3.90762 -1.35091 -0.715651 1.63443 21.1996 8.50214 -15.2155 
7039 1 1 8.09203 0.396497 5.49875 0 0 0 0.323681 0.0158599 0.21995 8.09203 0.396497 5.49875 0.617735 -1.09624 0.932786 23.0511 -9.21341 -29.5716 
5435 1 1 1.6664 9.0341 4.21064 0 0 0 0.0666559 0.361364 0.168426 1.6664 9.0341 4.21064 -0.162399 0.364787 -0.197979 -11.274 3.40018 2.1624 
7277 1 1 11.9634 9.31306 4.27047 0 0 0 0.478535 0.372522 0.170819 11.9634 9.31306 4.27047 -0.359614 1.21527 -2.70747 19.512 -16.9142 -1.24939 
7465 1 1 8.50653 12.0999 3.28767 0 0 0 0.340261 0.483998 0.131507 8.50653 12.0999 3.28767 2.17176 1.60846 -0.355682 -8.21466 23.7235 -1.70917 
1021 1 1 5.02687 0.195973 3.60745 0 0 0 0.201075 0.00783892 0.144298 5.02687 0.195973 3.60745 0.689967 -0.284013 1.53388 -1.29368 5.05717 0.815378 
6061 1 1 7.09894 0.344921 5.6956 0 1 0 0.283957 0.0137968 0.227824 7.09894 25.3449 5.6956 -0.415682 0.147109 0.463566 9.9254 -12.0933 2.36886 
6716 1 1 11.7282 4.87924 1.2228 0 1 1 0.469129 0.19517 0.048912 11.7282 29.8792 26.2228 1.08814 -0.714733 -1.5857 9.51766 10.1085 -11.7467 
10004 1 1 0.930272 4.21206 0.196345 1 0 1 0.0372109 0.168482 0.00785382 25.9303 4.21206 25.1963 0.855791 -0.256977 -0.537985 -5.74546 3.02548 22.291 
8959 1 1 4.59867 12.3622 4.87638 0 0 1 0.183947 0.494488 0.195055 4.59867 12.3622 29.8764 -0.773428 0.574293 -0.909808 -29.7237 -2.00974 -4.03373 
6309 1 1 9.8509 5.34537 0.322901 0 0 1 0.394036 0.213815 0.0129161 9.8509 5.34537 25.3229 0.575058 -0.452557 0.608746 -0.961441 7.72556 -5.47147 
3636 1 1 7.70655 3.44239 1.01041 0 0 0 0.308262 0.137696 0.0404164 7.70655 3.44239 1.01041 1.13324 -0.222652 0.521743 24.3355 -25.5359 -37.7372 
3271 1 1 0.0471806 4.97846 0.81284 0 0 1 0.00188723 0.199139 0.0325136 0.0471806 4.97846 25.8128 0.0733843 0.506185 -0.696454 -7.31238 -3.60342 8.55727 
1763 1 1 4.09175 0.0635794 0.679458 1 0 0 0.16367 0.00254317 0.0271783 29.0917 0.0635794 0.679458 0.743247 0.114267 -0.0975259 0.836953 53.0549 -19.2364 
11732 1 1 11.5767 11.6518 2.89527 0 0 0 0.46307 0.466071 0.115811 11.5767 11.6518 2.89527 1.77172 0.548535 1.20402 -0.24127 -11.0848 16.3634 
7743 1 1 8.97611 5.89943 4.40481 0 0 0 0.359045 0.235977 0.176193 8.97611 5.89943 4.40481 -1.28807 0.673327 -0.874363 4.0905 5.28847 1.79465 
1554 1 1 2.23349 10.6057 5.16783 0 0 0 0.0893395 0.424228 0.206713 2.23349 10.6057 5.16783 -0.594674 0.794933 1.76917 -23.6887 29.4806 9.96529 
1461 1 1 0.961849 8.14299 3.40334 0 0 0 0.0384739 0.32572 0.136134 0.961849 8.14299 3.40334 0.983496 -1.21648 -0.852397 -17.5767 9.47317 -13.2167 
2412 1 1 2.34685 6.09518 3.78753 0 0 1 0.093874 0.243807 0.151501 2.34685 6.09518 28.7875 0.820706 0.38975 -1.70218 -6.61788 5.74973 -7.45152 
3331 1 1 9.90157 9.50463 0.955411 -1 0 1 0.396063 0.380185 0.0382164 -15.0984 9.50463 25.9554 0.285109 -0.0704945 0.671487 -2.60308 -1.47479 -9.13007 
10145 1 1 8.55054 9.50111 6.14256 0 0 0 0.342022 0.380044 0.245703 8.55054 9.50111 6.14256 0.879839 -0.41571 0.127865 1.65298 4.30324 1.21681 
1158 1 1 0.803946 6.59097 2.66392 0 0 1 0.0321578 0.263639 0.106557 0.803946 6.59097 27.6639 -0.0390949 0.195342 1.6719 -22.0069 -5.21634 -19.6715 
12044 1 1 12.3738 5.81849 4.75051 0 0 0 0.494953 0.23274 0.190021 12.3738 5.81849 4.75051 1.05078 1.39711 -0.987762 23.8206 -21.5735 1.76153 
8063 1 1 12.3261 11.3666 3.73631 0 0 0 0.493044 0.454666 0.149452 12.3261 11.3666 3.73631 0.0347201 -0.129615 -0.074274 -2.97139 -4.05826 -5.19166 
5749 1 1 9.01641 0.406113 0.846487 0 1 1 0.360656 0.0162445 0.0338595 9.01641 25.4061 25.8465 0.0601857 -0.36953 0.513335 43.8462 -14.1132 -11.69 
3370 1 1 12.2378 8.31053 3.83182 0 0 0 0.489511 0.332421 0.153273 12.2378 8.31053 3.83182 -0.260169 -1.34861 0.772767 -5.58803 -0.357349 -1.62195 
1953 1 1 8.22875 11.9464 6.25872 0 0 0 0.32915 0.477857 0.250349 8.22875 11.9464 6.25872 -0.232682 0.883975 0.563658 21.9656 15.1174 -7.88309 
7037 1 1 7.21378 4.69177 1.97269 0 0 0 0.288551 0.187671 0.0789078 7.21378 4.69177 1.97269 1.22408 -1.55643 -0.858155 -0.788521 13.7798 -0.829109 
13322 1 1 11.7547 7.25545 1.5162 0 0 1 0.470189 0.290218 0.0606481 11.7547 7.25545 26.5162 0.127747 0.91725 -0.67426 1.40676 -12.56 -16.1402 
10798 1 1 10.8832 2.81594 0.332913 1 1 0 0.435326 0.112638 0.0133165 35.8832 27.8159 0.332913 -0.175422 1.03272 -0.91988 1.17667 -6.13137 0.42602 
2138 1 1 7.47324 0.255994 4.6493 0 0 1 0.29893 0.0102398 0.185972 7.47324 0.255994 29.6493 0.605572 0.670872 0.793742 2.44538 -5.45023 -10.692 
11859 1 1 8.11115 6.60419 4.23054 0 0 0 0.324446 0.264168 0.169221 8.11115 6.60419 4.23054 -1.11109 -1.28411 1.63504 2.25639 -3.30902 -12.8203 
7303 1 1 6.66771 12.1729 -0.00245495 0 0 0 0.266708 0.486915 -9.81978e-05 6.66771 12.1729 -0.00245495 0.11911 -1.03795 -0.860938 2.94318 -6.41893 5.14543 
8753 1 1 11.3123 11.6571 4.14224 0 0 0 0.452493 0.466283 0.16569 11.3123 11.6571 4.14224 -0.323246 -1.25133 0.438202 11.5676 56.6598 -21.7615 
10115 1 1 6.31211 10.1475 2.31317 0 0 1 0.252485 0.4059 0.092527 6.31211 10.1475 27.3132 0.532051 0.216423 0.0136607 -0.726344 -1.52626 7.64546 
7309 1 1 12.2079 1.19603 0.669746 0 0 0 0.488315 0.0478413 0.0267898 12.2079 1.19603 0.669746 1.47819 0.95924 0.0399374 -13.9922 18.1275 23.6998 
3628 1 1 1.95105 12.4846 5.06738 0 0 0 0.0780421 0.499383 0.202695 1.95105 12.4846 5.06738 -0.0624072 0.436959 0.589852 11.0945 0.931563 2.24142 
649 1 1 10.6405 6.94326 1.74394 0 0 0 0.425618 0.27773 0.0697575 10.6405 6.94326 1.74394 -0.28407 -1.02069 -0.265478 1.12876 7.43919 -35.5227 
10389 1 1 0.899204 1.22223 2.66938 1 0 0 0.0359682 0.0488891 0.106775 25.8992 1.22223 2.66938 -1.30031 -1.05664 0.405371 -39.4602 20.6127 10.5382 
4903 1 1 1.9106 0.930365 0.484019 0 1 1 0.0764241 0.0372146 0.0193608 1.9106 25.9304 25.484 -0.770547 -0.290919 -0.417827 11.1085 6.69257 -5.32281 
856 1 1 4.0487 10.6308 3.04644 0 0 0 0.161948 0.425231 0.121858 4.0487 10.6308 3.04644 -1.10667 1.61157 0.0351019 22.5846 3.96133 -27.2769 
7253 1 1 3.13417 6.19232 0.664016 1 0 0 0.125367 0.247693 0.0265607 28.1342 6.19232 0.664016 -0.0531162 0.981196 -0.702187 11.1027 -0.683772 10.7847 
13171 1 1 0.227757 10.3621 4.61536 1 0 1 0.00911029 0.414484 0.184614 25.2278 10.3621 29.6154 -0.340543 -1.23179 1.85533 -2.09446 -0.516421 -8.13431 
9641 1 1 5.00137 10.0273 4.81199 1 0 1 0.200055 0.401092 0.19248 30.0014 10.0273 29.812 0.119878 0.890065 0.216416 -18.6585 -1.47457 3.4645 
7906 1 1 9.65068 4.23599 5.48729 0 0 0 0.386027 0.169439 0.219491 9.65068 4.23599 5.48729 -0.551181 1.65686 -1.01001 -9.18463 3.70095 5.42195 
3863 1 1 4.97081 4.95449 0.650365 0 0 0 0.198832 0.19818 0.0260146 4.97081 4.95449 0.650365 -0.760561 -0.125508 -0.279429 5.96465 -6.07655 -0.796493 