ITEM: TIMESTEP
0
ITEM: NUMBER OF ATOMS
13500
ITEM: BOX BOUNDS
0 25
0 25
0 25
ITEM: ATOMS id type mass x y z ix iy iz xs ys zs xu yu zu vx vy vz fx fy fz 
1 1 1 0 0 0 0 0 0 0 0 0 0 0 0 0.27873 1.48027 -1.20167 525.454 525.454 525.454 
2 1 1 0.841563 0.841563 0 0 0 0 0.0336625 0.0336625 0 0.841563 0.841563 0 0.498781 1.05238 -1.19684 -1.76341 -1.76341 34.4039 
3 1 1 0.841563 0 0.841563 0 0 0 0.0336625 0 0.0336625 0.841563 0 0.841563 -1.04302 -0.449156 1.17911 -1.76341 34.4039 -1.76341 
4 1 1 0 0.841563 0.841563 0 0 0 0 0.0336625 0.0336625 0 0.841563 0.841563 -0.52818 0.610435 1.13707 34.4039 -1.76341 -1.76341 
5 1 1 1.68313 0 0 0 0 0 0.067325 0 0 1.68313 0 0 0.225525 -0.866925 0.0389177 -0.171536 280.018 280.018 
6 1 1 2.52469 0.841563 0 0 0 0 0.100988 0.0336625 0 2.52469 0.841563 0 -1.2185 0.351139 0.0948014 -0.0262545 -1.72265 34.4604 
7 1 1 2.52469 0 0.841563 0 0 0 0.100988 0 0.0336625 2.52469 0 0.841563 0.645047 1.348 1.46573 -0.0262545 34.4604 -1.72265 
8 1 1 1.68313 0.841563 0.841563 0 0 0 0.067325 0.0336625 0.0336625 1.68313 0.841563 0.841563 0.998373 -1.07843 -1.63852 -0.151858 -1.58856 -1.58856 
9 1 1 3.36625 0 0 0 0 0 0.13465 0 0 3.36625 0 0 -0.148142 1.06072 1.29607 -1.34441e-15 280.024 280.024 
10 1 1 4.20781 0.841563 0 0 0 0 0.168313 0.0336625 0 4.20781 0.841563 0 0.137381 -0.432011 -0.660387 1.1074e-13 -1.72115 34.4616 
11 1 1 4.20781 0 0.841563 0 0 0 0.168313 0 0.0336625 4.20781 0 0.841563 -0.0273012 -0.629026 0.163511 1.10426e-13 34.4616 -1.72115 
12 1 1 3.36625 0.841563 0.841563 0 0 0 0.13465 0.0336625 0.0336625 3.36625 0.841563 0.841563 0.492771 2.18446 0.74905 -1.94506e-16 -1.58192 -1.58192 
13 1 1 5.04938 0 0 0 0 0 0.201975 0 0 5.04938 0 0 -0.220811 0.210435 -0.917513 -3.64149e-13 280.024 280.024 
14 1 1 5.89094 0.841563 0 0 0 0 0.235638 0.0336625 0 5.89094 0.841563 0 -0.374314 1.10766 -0.451795 1.89478e-13 -1.72115 34.4616 
15 1 1 5.89094 0 0.841563 0 0 0 0.235638 0 0.0336625 5.89094 0 0.841563 -0.418802 1.18156 0.319411 1.89222e-13 34.4616 -1.72115 
16 1 1 5.04938 0.841563 0.841563 0 0 0 0.201975 0.0336625 0.0336625 5.04938 0.841563 0.841563 0.638954 -0.814061 0.348662 -1.93662e-14 -1.58192 -1.58192 
17 1 1 6.7325 0 0 0 0 0 0.2693 0 0 6.7325 0 0 1.05152 2.12298 -0.793258 -1.53046e-15 280.024 280.024 
18 1 1 7.57407 0.841563 0 0 0 0 0.302963 0.0336625 0 7.57407 0.841563 0 -0.174627 0.771644 0.465266 -1.85231e-13 -1.72115 34.4616 
19 1 1 7.57407 0 0.841563 0 0 0 0.302963 0 0.0336625 7.57407 0 0.841563 -0.48574 1.63954 -1.40518 -1.85324e-13 34.4616 -1.72115 
20 1 1 6.7325 0.841563 0.841563 0 0 0 0.2693 0.0336625 0.0336625 6.7325 0.841563 0.841563 -1.47306 -1.34862 -0.567688 1.78243e-16 -1.58192 -1.58192 
21 1 1 8.41563 0 0 0 0 0 0.336625 0 0 8.41563 0 0 -1.43755 -2.12775 1.02571 -5.66387e-15 280.024 280.024 
22 1 1 9.25719 0.841563 0 0 0 0 0.370288 0.0336625 0 9.25719 0.841563 0 -0.550958 -0.751779 0.119882 3.38618e-13 -1.72115 34.4616 
23 1 1 9.25719 0 0.841563 0 0 0 0.370288 0 0.0336625 9.25719 0 0.841563 1.51905 0.801841 -0.608181 3.38526e-13 34.4616 -1.72115 
24 1 1 8.41563 0.841563 0.841563 0 0 0 0.336625 0.0336625 0.0336625 8.41563 0.841563 0.841563 -0.336457 -0.835094 -2.02002 -3.84567e-15 -1.58192 -1.58192 
25 1 1 10.0988 0 0 0 0 0 0.40395 0 0 10.0988 0 0 -1.58281 -0.395438 -1.42163 -6.34492e-13 280.024 280.024 
26 1 1 10.9403 0.841563 0 0 0 0 0.437613 0.0336625 0 10.9403 0.841563 0 0.883925 1.30216 0.107761 1.44329e-15 -1.72115 34.4616 
27 1 1 10.9403 0 0.841563 0 0 0 0.437613 0 0.0336625 10.9403 0 0.841563 -2.17634 -0.856408 -1.47403 4.44089e-16 34.4616 -1.72115 
28 1 1 10.0988 0.841563 0.841563 0 0 0 0.40395 0.0336625 0.0336625 10.0988 0.841563 0.841563 0.205793 0.570366 0.929564 -4.14044e-14 -1.58192 -1.58192 
29 1 1 11.7819 0 0 0 0 0 0.471275 0 0 11.7819 0 0 -1.47241 1.35733 0.399594 6.32383e-13 280.024 280.024 
30 1 1 11.7819 0.841563 0.841563 0 0 0 0.471275 0.0336625 0.0336625 11.7819 0.841563 0.841563 1.10677 -1.32977 0.611014 4.17444e-14 -1.58192 -1.58192 
31 1 1 0 1.68313 0 0 0 0 0 0.067325 0 0 1.68313 0 -0.445559 -0.58483 -0.123095 280.018 -0.171536 280.018 
32 1 1 0.841563 2.52469 0 0 0 0 0.0336625 0.100988 0 0.841563 2.52469 0 1.03746 -1.43779 -0.0567419 -1.72265 -0.0262545 34.4604 
33 1 1 0.841563 1.68313 0.841563 0 0 0 0.0336625 0.067325 0.0336625 0.841563 1.68313 0.841563 0.822971 -0.833624 -0.537395 -1.58856 -0.151858 -1.58856 
34 1 1 0 2.52469 0.841563 0 0 0 0 0.100988 0.0336625 0 2.52469 0.841563 -1.493 0.40807 -0.87525 34.4604 -0.0262545 -1.72265 
35 1 1 1.68313 1.68313 0 0 0 0 0.067325 0.067325 0 1.68313 1.68313 0 -0.974527 -0.998538 0.508898 -0.157687 -0.157687 34.5086 
36 1 1 2.52469 2.52469 0 0 0 0 0.100988 0.100988 0 2.52469 2.52469 0 -1.03896 -0.92564 0.135634 -0.0239797 -0.0239797 34.5169 
37 1 1 2.52469 1.68313 0.841563 0 0 0 0.100988 0.067325 0.0336625 2.52469 1.68313 0.841563 1.81636 1.58623 0.529448 -0.0258834 -0.144992 -1.54883 
38 1 1 1.68313 2.52469 0.841563 0 0 0 0.067325 0.100988 0.0336625 1.68313 2.52469 0.841563 -0.0377262 -0.463689 0.660889 -0.144992 -0.0258834 -1.54883 
39 1 1 3.36625 1.68313 0 0 0 0 0.13465 0.067325 0 3.36625 1.68313 0 -0.658989 1.08139 -2.13121 -8.5652e-17 -0.152242 34.5145 
40 1 1 4.20781 2.52469 0 0 0 0 0.168313 0.100988 0 4.20781 2.52469 0 -0.689362 -0.368261 -0.754773 1.11222e-13 -0.0239797 34.5187 
41 1 1 4.20781 1.68313 0.841563 0 0 0 0.168313 0.067325 0.0336625 4.20781 1.68313 0.841563 0.122474 -0.733761 2.07841 1.16808e-14 -0.14316 -1.54684 
42 1 1 3.36625 2.52469 0.841563 0 0 0 0.13465 0.100988 0.0336625 3.36625 2.52469 0.841563 -0.453411 0.602833 1.55049 -7.64037e-16 -0.023374 -1.54168 
43 1 1 5.04938 1.68313 0 0 0 0 0.201975 0.067325 0 5.04938 1.68313 0 -0.231471 0.806957 -0.987508 -1.91297e-13 -0.152242 34.5145 
44 1 1 5.89094 2.52469 0 0 0 0 0.235638 0.100988 0 5.89094 2.52469 0 1.10187 1.41909 0.220885 1.92797e-13 -0.0239797 34.5187 
45 1 1 5.89094 1.68313 0.841563 0 0 0 0.235638 0.067325 0.0336625 5.89094 1.68313 0.841563 1.0472 -0.664269 1.95024 1.79015e-14 -0.14316 -1.54684 
46 1 1 5.04938 2.52469 0.841563 0 0 0 0.201975 0.100988 0.0336625 5.04938 2.52469 0.841563 1.04022 -0.351299 0.223921 -2.1396e-14 -0.023374 -1.54168 
47 1 1 6.7325 1.68313 0 0 0 0 0.2693 0.067325 0 6.7325 1.68313 0 0.0906726 0.706805 0.877246 1.12367e-15 -0.152242 34.5145 
48 1 1 7.57407 2.52469 0 0 0 0 0.302963 0.100988 0 7.57407 2.52469 0 -0.215517 0.203052 0.600088 -1.87068e-13 -0.0239797 34.5187 
49 1 1 7.57407 1.68313 0.841563 0 0 0 0.302963 0.067325 0.0336625 7.57407 1.68313 0.841563 1.28825 0.100514 -0.357353 -1.49169e-14 -0.14316 -1.54684 
50 1 1 6.7325 2.52469 0.841563 0 0 0 0.2693 0.100988 0.0336625 6.7325 2.52469 0.841563 -0.802812 1.84641 1.74579 -4.34657e-16 -0.023374 -1.54168 
51 1 1 8.41563 1.68313 0 0 0 0 0.336625 0.067325 0 8.41563 1.68313 0 0.73621 0.262355 -1.18552 -3.50631e-15 -0.152242 34.5145 
52 1 1 9.25719 2.52469 0 0 0 0 0.370288 0.100988 0 9.25719 2.52469 0 -0.43811 -0.0716533 -1.65142 3.39055e-13 -0.0239797 34.5187 
53 1 1 9.25719 1.68313 0.841563 0 0 0 0.370288 0.067325 0.0336625 9.25719 1.68313 0.841563 -0.253716 -0.318456 -0.241449 4.42636e-14 -0.14316 -1.54684 
54 1 1 8.41563 2.52469 0.841563 0 0 0 0.336625 0.100988 0.0336625 8.41563 2.52469 0.841563 -0.690607 0.330047 0.64798 -3.8744e-15 -0.023374 -1.54168 
55 1 1 10.0988 1.68313 0 0 0 0 0.40395 0.067325 0 10.0988 1.68313 0 1.4521 0.891454 -0.937689 -3.3927e-13 -0.152242 34.5145 
56 1 1 10.9403 2.52469 0 0 0 0 0.437613 0.100988 0 10.9403 2.52469 0 -1.17075 0.0458143 -1.11081 1.11022e-15 -0.0239797 34.5187 
57 1 1 10.9403 1.68313 0.841563 0 0 0 0.437613 0.067325 0.0336625 10.9403 1.68313 0.841563 -0.00576615 -1.76204 1.15225 -3.05311e-16 -0.14316 -1.54684 
58 1 1 10.0988 2.52469 0.841563 0 0 0 0.40395 0.100988 0.0336625 10.0988 2.52469 0.841563 -0.845652 1.04825 0.369653 -4.34097e-14 -0.023374 -1.54168 
59 1 1 11.7819 1.68313 0 0 0 0 0.471275 0.067325 0 11.7819 1.68313 0 0.298755 -0.793558 -1.76735 3.37508e-13 -0.152242 34.5145 
60 1 1 11.7819 2.52469 0.841563 0 0 0 0.471275 0.100988 0.0336625 11.7819 2.52469 0.841563 -1.26907 0.433003 -0.546266 4.30767e-14 -0.023374 -1.54168 
61 1 1 0 3.36625 0 0 0 0 0 0.13465 0 0 3.36625 0 -0.250007 -0.932504 -1.14162 280.024 1.66533e-15 280.024 
62 1 1 0.841563 4.20781 0 0 0 0 0.0336625 0.168313 0 0.841563 4.20781 0 -1.45303 -0.77557 1.05142 -1.72115 1.12799e-13 34.4616 
63 1 1 0.841563 3.36625 0.841563 0 0 0 0.0336625 0.13465 0.0336625 0.841563 3.36625 0.841563 1.40071 1.09452 -0.159165 -1.58192 4.85723e-16 -1.58192 
64 1 1 0 4.20781 0.841563 0 0 0 0 0.168313 0.0336625 0 4.20781 0.841563 -0.9164 -0.963498 -1.00389 34.4616 1.1191e-13 -1.72115 
65 1 1 1.68313 3.36625 0 0 0 0 0.067325 0.13465 0 1.68313 3.36625 0 -0.178908 1.2294 -0.311057 -0.152242 2.34361e-15 34.5145 
66 1 1 2.52469 4.20781 0 0 0 0 0.100988 0.168313 0 2.52469 4.20781 0 -0.577634 -1.23661 0.831641 -0.0239797 1.11417e-13 34.5187 
67 1 1 2.52469 3.36625 0.841563 0 0 0 0.100988 0.13465 0.0336625 2.52469 3.36625 0.841563 0.535987 0.467027 0.94692 -0.023374 9.88792e-17 -1.54168 
68 1 1 1.68313 4.20781 0.841563 0 0 0 0.067325 0.168313 0.0336625 1.68313 4.20781 0.841563 -1.06145 1.10659 0.107942 -0.14316 1.26912e-14 -1.54684 
69 1 1 3.36625 3.36625 0 0 0 0 0.13465 0.13465 0 3.36625 3.36625 0 -0.274475 1.0018 -0.84461 -2.54137e-16 3.31679e-15 34.5205 
70 1 1 4.20781 4.20781 0 0 0 0 0.168313 0.168313 0 4.20781 4.20781 0 -1.35099 -1.27614 -1.22459 1.12402e-13 1.10826e-13 34.5205 
71 1 1 4.20781 3.36625 0.841563 0 0 0 0.168313 0.13465 0.0336625 4.20781 3.36625 0.841563 -0.550281 -1.15223 -0.48512 1.29449e-14 -4.61545e-16 -1.53969 
72 1 1 3.36625 4.20781 0.841563 0 0 0 0.13465 0.168313 0.0336625 3.36625 4.20781 0.841563 1.63615 0.376956 -0.743638 -1.07141e-15 1.37802e-14 -1.53969 
73 1 1 5.04938 3.36625 0 0 0 0 0.201975 0.13465 0 5.04938 3.36625 0 -1.43905 -0.976396 0.375722 -1.94531e-13 9.85323e-16 34.5205 
74 1 1 5.89094 4.20781 0 0 0 0 0.235638 0.168313 0 5.89094 4.20781 0 0.238989 0.612938 0.362071 1.92665e-13 1.16154e-13 34.5205 
75 1 1 5.89094 3.36625 0.841563 0 0 0 0.235638 0.13465 0.0336625 5.89094 3.36625 0.841563 1.0532 -1.32148 -0.738987 2.10027e-14 2.49366e-16 -1.53969 
76 1 1 5.04938 4.20781 0.841563 0 0 0 0.201975 0.168313 0.0336625 5.04938 4.20781 0.841563 -0.705654 1.02804 -1.59894 -2.24877e-14 1.37238e-14 -1.53969 
77 1 1 6.7325 3.36625 0 0 0 0 0.2693 0.13465 0 6.7325 3.36625 0 -0.290358 -0.043073 0.615022 5.73326e-16 2.42688e-15 34.5205 
78 1 1 7.57407 4.20781 0 0 0 0 0.302963 0.168313 0 7.57407 4.20781 0 -0.0489369 -1.12314 -0.222369 -1.88408e-13 1.08928e-13 34.5205 
79 1 1 7.57407 3.36625 0.841563 0 0 0 0.302963 0.13465 0.0336625 7.57407 3.36625 0.841563 -0.688812 -1.34839 -1.79682 -1.68268e-14 8.97719e-17 -1.53969 
80 1 1 6.7325 4.20781 0.841563 0 0 0 0.2693 0.168313 0.0336625 6.7325 4.20781 0.841563 0.444781 1.34019 1.52452 2.21394e-16 1.1793e-14 -1.53969 
81 1 1 8.41563 3.36625 0 0 0 0 0.336625 0.13465 0 8.41563 3.36625 0 0.00377592 -0.032783 -0.354076 -3.6169e-15 3.11123e-15 34.5205 
82 1 1 9.25719 4.20781 0 0 0 0 0.370288 0.168313 0 9.25719 4.20781 0 0.176332 0.895427 -0.531759 3.40105e-13 1.16575e-13 34.5205 
83 1 1 9.25719 3.36625 0.841563 0 0 0 0.370288 0.13465 0.0336625 9.25719 3.36625 0.841563 0.414329 -0.157317 0.0662698 4.21382e-14 -7.58074e-16 -1.53969 
84 1 1 8.41563 4.20781 0.841563 0 0 0 0.336625 0.168313 0.0336625 8.41563 4.20781 0.841563 0.0396518 1.34659 -0.749309 -3.94346e-15 1.55583e-14 -1.53969 
85 1 1 10.0988 3.36625 0 0 0 0 0.40395 0.13465 0 10.0988 3.36625 0 -0.282716 -0.224535 0.949795 -3.39118e-13 -2.27596e-15 34.5205 
86 1 1 10.9403 4.20781 0 0 0 0 0.437613 0.168313 0 10.9403 4.20781 0 0.547666 -0.306603 -0.5266 1.22125e-15 1.12169e-13 34.5205 
87 1 1 10.9403 3.36625 0.841563 0 0 0 0.437613 0.13465 0.0336625 10.9403 3.36625 0.841563 -0.193826 -0.0882097 -0.892791 4.996e-16 -7.63278e-16 -1.53969 
88 1 1 10.0988 4.20781 0.841563 0 0 0 0.40395 0.168313 0.0336625 10.0988 4.20781 0.841563 -1.55737 -0.746724 -2.55748 -4.38087e-14 1.35395e-14 -1.53969 
89 1 1 11.7819 3.36625 0 0 0 0 0.471275 0.13465 0 11.7819 3.36625 0 1.04829 -0.446785 -0.892151 3.35731e-13 2.498e-16 34.5205 
90 1 1 11.7819 4.20781 0.841563 0 0 0 0.471275 0.168313 0.0336625 11.7819 4.20781 0.841563 0.205364 -0.586526 -1.33348 4.41314e-14 1.43843e-14 -1.53969 
91 1 1 0 5.04938 0 0 0 0 0 0.201975 0 0 5.04938 0 1.61947 0.24055 -0.589452 280.024 -3.61669e-13 280.024 
92 1 1 0.841563 5.89094 0 0 0 0 0.0336625 0.235638 0 0.841563 5.89094 0 -0.261354 -1.5818 0.882474 -1.72115 1.89349e-13 34.4616 
93 1 1 0.841563 5.04938 0.841563 0 0 0 0.0336625 0.201975 0.0336625 0.841563 5.04938 0.841563 -0.758511 0.0635932 -0.0484946 -1.58192 -2.00846e-14 -1.58192 
94 1 1 0 5.89094 0.841563 0 0 0 0 0.235638 0.0336625 0 5.89094 0.841563 -1.12291 0.889014 -0.289574 34.4616 1.89238e-13 -1.72115 
95 1 1 1.68313 5.04938 0 0 0 0 0.067325 0.201975 0 1.68313 5.04938 0 0.0623184 -0.873665 0.432426 -0.152242 -1.90864e-13 34.5145 
96 1 1 2.52469 5.89094 0 0 0 0 0.100988 0.235638 0 2.52469 5.89094 0 0.364852 0.301754 1.52255 -0.0239797 1.89482e-13 34.5187 
97 1 1 2.52469 5.04938 0.841563 0 0 0 0.100988 0.201975 0.0336625 2.52469 5.04938 0.841563 0.590079 -0.56779 -0.685677 -0.023374 -2.17633e-14 -1.54168 
98 1 1 1.68313 5.89094 0.841563 0 0 0 0.067325 0.235638 0.0336625 1.68313 5.89094 0.841563 -0.102379 0.878504 1.10771 -0.14316 1.89952e-14 -1.54684 
99 1 1 3.36625 5.04938 0 0 0 0 0.13465 0.201975 0 3.36625 5.04938 0 0.0160727 -0.628601 1.19546 -7.34655e-16 -1.92963e-13 34.5205 
100 1 1 4.20781 5.89094 0 0 0 0 0.168313 0.235638 0 4.20781 5.89094 0 -0.822374 0.994003 -0.428904 1.13473e-13 1.9087e-13 34.5205 
101 1 1 4.20781 5.04938 0.841563 0 0 0 0.168313 0.201975 0.0336625 4.20781 5.04938 0.841563 1.4081 2.65008 -0.080956 1.22905e-14 -2.15028e-14 -1.53969 
102 1 1 3.36625 5.89094 0.841563 0 0 0 0.13465 0.235638 0.0336625 3.36625 5.89094 0.841563 0.503323 0.935996 -1.75457 -9.22222e-16 2.06567e-14 -1.53969 
103 1 1 5.04938 5.04938 0 0 0 0 0.201975 0.201975 0 5.04938 5.04938 0 -0.322225 -0.842899 1.69366 -1.95343e-13 -1.91825e-13 34.5205 
104 1 1 5.89094 5.89094 0 0 0 0 0.235638 0.235638 0 5.89094 5.89094 0 -0.664095 -0.506655 0.303908 1.93339e-13 1.94078e-13 34.5205 
105 1 1 5.89094 5.04938 0.841563 0 0 0 0.235638 0.201975 0.0336625 5.89094 5.04938 0.841563 -1.12148 -0.895929 0.838945 2.01818e-14 -2.14689e-14 -1.53969 
106 1 1 5.04938 5.89094 0.841563 0 0 0 0.201975 0.235638 0.0336625 5.04938 5.89094 0.841563 1.43918 0.30568 -0.0836408 -2.25969e-14 1.90841e-14 -1.53969 
107 1 1 6.7325 5.04938 0 0 0 0 0.2693 0.201975 0 6.7325 5.04938 0 -1.27453 0.402081 -0.352285 2.98372e-16 -1.90296e-13 34.5205 
108 1 1 7.57407 5.89094 0 0 0 0 0.302963 0.235638 0 7.57407 5.89094 0 -0.0258435 -0.546322 0.975194 -1.88204e-13 1.91439e-13 34.5205 
109 1 1 7.57407 5.04938 0.841563 0 0 0 0.302963 0.201975 0.0336625 7.57407 5.04938 0.841563 0.749627 0.840636 -0.183314 -1.70159e-14 -2.16979e-14 -1.53969 
110 1 1 6.7325 5.89094 0.841563 0 0 0 0.2693 0.235638 0.0336625 6.7325 5.89094 0.841563 0.641492 0.659258 -0.82928 7.80842e-16 1.99714e-14 -1.53969 
111 1 1 8.41563 5.04938 0 0 0 0 0.336625 0.201975 0 8.41563 5.04938 0 -0.329037 1.23352 -0.752309 -3.46858e-15 -1.90047e-13 34.5205 
112 1 1 9.25719 5.89094 0 0 0 0 0.370288 0.235638 0 9.25719 5.89094 0 -0.27732 -0.881034 1.57257 3.4054e-13 1.93888e-13 34.5205 
113 1 1 9.25719 5.04938 0.841563 0 0 0 0.370288 0.201975 0.0336625 9.25719 5.04938 0.841563 1.39533 -2.35625 -0.467995 4.30506e-14 -2.29998e-14 -1.53969 
114 1 1 8.41563 5.89094 0.841563 0 0 0 0.336625 0.235638 0.0336625 8.41563 5.89094 0.841563 1.29718 -1.26505 -0.0904718 -3.79774e-15 2.07729e-14 -1.53969 
115 1 1 10.0988 5.04938 0 0 0 0 0.40395 0.201975 0 10.0988 5.04938 0 1.18006 0.543256 0.102248 -3.39839e-13 -1.967e-13 34.5205 
116 1 1 10.9403 5.89094 0 0 0 0 0.437613 0.235638 0 10.9403 5.89094 0 0.414236 -0.787335 1.68424 6.66134e-16 1.91971e-13 34.5205 
117 1 1 10.9403 5.04938 0.841563 0 0 0 0.437613 0.201975 0.0336625 10.9403 5.04938 0.841563 2.19681 -1.19682 -0.53273 -4.996e-16 -2.29261e-14 -1.53969 
118 1 1 10.0988 5.89094 0.841563 0 0 0 0.40395 0.235638 0.0336625 10.0988 5.89094 0.841563 0.0399462 -1.73616 1.10014 -4.27158e-14 2.06953e-14 -1.53969 
119 1 1 11.7819 5.04938 0 0 0 0 0.471275 0.201975 0 11.7819 5.04938 0 -1.05174 0.777729 -0.488667 3.3662e-13 -1.93401e-13 34.5205 
120 1 1 11.7819 5.89094 0.841563 0 0 0 0.471275 0.235638 0.0336625 11.7819 5.89094 0.841563 0.814897 1.1319 -0.381506 4.30767e-14 2.08722e-14 -1.53969 
121 1 1 0 6.7325 0 0 0 0 0 0.2693 0 0 6.7325 0 -0.0953014 -0.648822 -0.215174 280.024 1.77636e-15 280.024 
122 1 1 0.841563 7.57407 0 0 0 0 0.0336625 0.302963 0 0.841563 7.57407 0 -0.934329 -0.00688769 0.320841 -1.72115 -1.85529e-13 34.4616 
123 1 1 0.841563 6.7325 0.841563 0 0 0 0.0336625 0.2693 0.0336625 0.841563 6.7325 0.841563 1.36089 -0.0560871 0.998093 -1.58192 1.94289e-15 -1.58192 
124 1 1 0 7.57407 0.841563 0 0 0 0 0.302963 0.0336625 0 7.57407 0.841563 -1.72656 -1.07038 -0.184388 34.4616 -1.8708e-13 -1.72115 
125 1 1 1.68313 6.7325 0 0 0 0 0.067325 0.2693 0 1.68313 6.7325 0 -1.00966 -0.273611 0.896391 -0.152242 2.70617e-15 34.5145 
126 1 1 2.52469 7.57407 0 0 0 0 0.100988 0.302963 0 2.52469 7.57407 0 -1.05076 -1.75626 -1.95637 -0.0239797 -1.90774e-13 34.5187 
127 1 1 2.52469 6.7325 0.841563 0 0 0 0.100988 0.2693 0.0336625 2.52469 6.7325 0.841563 -0.594336 -2.174 -0.331383 -0.023374 2.93775e-15 -1.54168 
128 1 1 1.68313 7.57407 0.841563 0 0 0 0.067325 0.302963 0.0336625 1.68313 7.57407 0.841563 0.806675 -1.35932 -0.304706 -0.14316 -1.45461e-14 -1.54684 
129 1 1 3.36625 6.7325 0 0 0 0 0.13465 0.2693 0 3.36625 6.7325 0 -0.678201 -0.76848 -0.0213507 -9.12465e-16 2.67234e-15 34.5205 
130 1 1 4.20781 7.57407 0 0 0 0 0.168313 0.302963 0 4.20781 7.57407 0 0.251523 0.00624113 0.975395 1.14329e-13 -1.88592e-13 34.5205 
131 1 1 4.20781 6.7325 0.841563 0 0 0 0.168313 0.2693 0.0336625 4.20781 6.7325 0.841563 -0.00427122 0.64699 -1.07584 1.24174e-14 1.83447e-16 -1.53969 
132 1 1 3.36625 7.57407 0.841563 0 0 0 0.13465 0.302963 0.0336625 3.36625 7.57407 0.841563 0.431135 0.000226587 -1.21523 -1.1859e-15 -1.75142e-14 -1.53969 
133 1 1 5.04938 6.7325 0 0 0 0 0.201975 0.2693 0 5.04938 6.7325 0 -1.07156 0.533756 -0.970119 -1.93395e-13 3.88144e-15 34.5205 
134 1 1 5.89094 7.57407 0 0 0 0 0.235638 0.302963 0 5.89094 7.57407 0 0.519724 -0.439241 -0.546136 1.93312e-13 -1.8823e-13 34.5205 
135 1 1 5.89094 6.7325 0.841563 0 0 0 0.235638 0.2693 0.0336625 5.89094 6.7325 0.841563 0.705537 0.804987 -0.103609 2.03381e-14 2.81155e-15 -1.53969 
136 1 1 5.04938 7.57407 0.841563 0 0 0 0.201975 0.302963 0.0336625 5.04938 7.57407 0.841563 1.12258 -1.45064 0.01096 -2.14763e-14 -1.59087e-14 -1.53969 
137 1 1 6.7325 6.7325 0 0 0 0 0.2693 0.2693 0 6.7325 6.7325 0 0.858407 1.90432 -0.949342 2.29851e-16 3.79341e-15 34.5205 
138 1 1 7.57407 7.57407 0 0 0 0 0.302963 0.302963 0 7.57407 7.57407 0 -0.149086 -0.396234 -0.785239 -1.8784e-13 -1.89035e-13 34.5205 
139 1 1 7.57407 6.7325 0.841563 0 0 0 0.302963 0.2693 0.0336625 7.57407 6.7325 0.841563 -0.753672 -0.553765 1.23723 -1.64979e-14 9.60603e-16 -1.53969 
140 1 1 6.7325 7.57407 0.841563 0 0 0 0.2693 0.302963 0.0336625 6.7325 7.57407 0.841563 -0.748404 -0.329248 -1.84215 -2.74737e-16 -1.65052e-14 -1.53969 
141 1 1 8.41563 6.7325 0 0 0 0 0.336625 0.2693 0 8.41563 6.7325 0 1.12619 -1.48028 0.57703 -3.51542e-15 4.8234e-15 34.5205 
142 1 1 9.25719 7.57407 0 0 0 0 0.370288 0.302963 0 9.25719 7.57407 0 0.224718 1.61116 -0.861062 3.38981e-13 -1.87093e-13 34.5205 
143 1 1 9.25719 6.7325 0.841563 0 0 0 0.370288 0.2693 0.0336625 9.25719 6.7325 0.841563 1.75802 0.649363 -2.31092 4.48508e-14 1.21994e-15 -1.53969 
144 1 1 8.41563 7.57407 0.841563 0 0 0 0.336625 0.302963 0.0336625 8.41563 7.57407 0.841563 0.460136 -0.346697 0.157836 -3.54447e-15 -1.66798e-14 -1.53969 
145 1 1 10.0988 6.7325 0 0 0 0 0.40395 0.2693 0 10.0988 6.7325 0 -0.0751107 0.0081534 -0.378116 -3.40922e-13 -1.9971e-15 34.5205 
146 1 1 10.9403 7.57407 0 0 0 0 0.437613 0.302963 0 10.9403 7.57407 0 -0.996074 0.865991 0.325969 5.55112e-16 -1.89515e-13 34.5205 
147 1 1 10.9403 6.7325 0.841563 0 0 0 0.437613 0.2693 0.0336625 10.9403 6.7325 0.841563 -0.125807 1.44515 0.822588 4.71845e-16 9.50628e-16 -1.53969 
148 1 1 10.0988 7.57407 0.841563 0 0 0 0.40395 0.302963 0.0336625 10.0988 7.57407 0.841563 0.962799 0.965037 -1.28457 -4.36873e-14 -1.69136e-14 -1.53969 
149 1 1 11.7819 6.7325 0 0 0 0 0.471275 0.2693 0 11.7819 6.7325 0 1.10571 0.580566 -1.11456 3.39284e-13 2.72699e-15 34.5205 
150 1 1 11.7819 7.57407 0.841563 0 0 0 0.471275 0.302963 0.0336625 11.7819 7.57407 0.841563 1.35195 1.23456 0.561225 4.39648e-14 -1.70974e-14 -1.53969 
151 1 1 0 8.41563 0 0 0 0 0 0.336625 0 0 8.41563 0 -1.15348 -0.08951 -0.385721 280.024 -2.88658e-15 280.024 
152 1 1 0.841563 9.25719 0 0 0 0 0.0336625 0.370288 0 0.841563 9.25719 0 0.340312 0.172053 2.4955 -1.72115 3.3934e-13 34.4616 
153 1 1 0.841563 8.41563 0.841563 0 0 0 0.0336625 0.336625 0.0336625 0.841563 8.41563 0.841563 0.274115 -0.369788 -1.0524 -1.58192 -3.69149e-15 -1.58192 
154 1 1 0 9.25719 0.841563 0 0 0 0 0.370288 0.0336625 0 9.25719 0.841563 0.853259 0.66531 1.33284 34.4616 3.41061e-13 -1.72115 
155 1 1 1.68313 8.41563 0 0 0 0 0.067325 0.336625 0 1.68313 8.41563 0 -0.840365 1.69807 1.05163 -0.152242 -1.84748e-15 34.5145 
156 1 1 2.52469 9.25719 0 0 0 0 0.100988 0.370288 0 2.52469 9.25719 0 0.0111354 -1.25426 0.181249 -0.0239797 3.36515e-13 34.5187 
157 1 1 2.52469 8.41563 0.841563 0 0 0 0.100988 0.336625 0.0336625 2.52469 8.41563 0.841563 1.90859 -0.222889 0.48895 -0.023374 -3.54491e-15 -1.54168 
158 1 1 1.68313 9.25719 0.841563 0 0 0 0.067325 0.370288 0.0336625 1.68313 9.25719 0.841563 -0.0811202 0.612746 0.472829 -0.14316 4.35832e-14 -1.54684 
159 1 1 3.36625 8.41563 0 0 0 0 0.13465 0.336625 0 3.36625 8.41563 0 0.520953 1.97518 -1.02089 -1.03476e-15 -1.46367e-15 34.5205 
160 1 1 4.20781 9.25719 0 0 0 0 0.168313 0.370288 0 4.20781 9.25719 0 -0.444816 1.42929 -3.0605 1.14414e-13 3.36245e-13 34.5205 
161 1 1 4.20781 8.41563 0.841563 0 0 0 0.168313 0.336625 0.0336625 4.20781 8.41563 0.841563 0.916376 0.760492 -0.704122 1.3301e-14 -3.75578e-15 -1.53969 
162 1 1 3.36625 9.25719 0.841563 0 0 0 0.13465 0.370288 0.0336625 3.36625 9.25719 0.841563 1.79819 1.24919 0.97153 1.74123e-16 4.33807e-14 -1.53969 
163 1 1 5.04938 8.41563 0 0 0 0 0.201975 0.336625 0 5.04938 8.41563 0 1.48323 -0.246641 0.301937 -1.94361e-13 -1.34398e-15 34.5205 
164 1 1 5.89094 9.25719 0 0 0 0 0.235638 0.370288 0 5.89094 9.25719 0 -0.930878 1.17482 0.632451 1.93486e-13 3.3935e-13 34.5205 
165 1 1 5.89094 8.41563 0.841563 0 0 0 0.235638 0.336625 0.0336625 5.89094 8.41563 0.841563 -0.195912 1.27903 -0.0318126 2.03422e-14 -2.56913e-15 -1.53969 
166 1 1 5.04938 9.25719 0.841563 0 0 0 0.201975 0.370288 0.0336625 5.04938 9.25719 0.841563 -0.0638385 -0.336387 1.12258 -2.26247e-14 4.48613e-14 -1.53969 
167 1 1 6.7325 8.41563 0 0 0 0 0.2693 0.336625 0 6.7325 8.41563 0 0.0759024 0.54409 1.1423 7.93636e-16 3.92481e-16 34.5205 
168 1 1 7.57407 9.25719 0 0 0 0 0.302963 0.370288 0 7.57407 9.25719 0 -1.26945 0.417605 0.748112 -1.88588e-13 3.36342e-13 34.5205 
169 1 1 7.57407 8.41563 0.841563 0 0 0 0.302963 0.336625 0.0336625 7.57407 8.41563 0.841563 -0.554877 0.826415 0.077557 -1.54503e-14 -3.18322e-15 -1.53969 
170 1 1 6.7325 9.25719 0.841563 0 0 0 0.2693 0.370288 0.0336625 6.7325 9.25719 0.841563 -1.02566 -1.08163 0.88785 3.67111e-16 4.22314e-14 -1.53969 
171 1 1 8.41563 8.41563 0 0 0 0 0.336625 0.336625 0 8.41563 8.41563 0 0.807937 -0.0295456 0.609731 -4.06532e-15 -3.24827e-16 34.5205 
172 1 1 9.25719 9.25719 0 0 0 0 0.370288 0.370288 0 9.25719 9.25719 0 -0.404283 0.0263014 0.520995 3.39916e-13 3.41863e-13 34.5205 
173 1 1 9.25719 8.41563 0.841563 0 0 0 0.370288 0.336625 0.0336625 9.25719 8.41563 0.841563 0.950024 0.3831 -0.531594 4.27202e-14 -3.30638e-15 -1.53969 
174 1 1 8.41563 9.25719 0.841563 0 0 0 0.336625 0.370288 0.0336625 8.41563 9.25719 0.841563 -2.47316 0.00270998 0.47039 -4.00591e-15 4.45794e-14 -1.53969 
175 1 1 10.0988 8.41563 0 0 0 0 0.40395 0.336625 0 10.0988 8.41563 0 0.98059 0.344902 -0.0688586 -3.39784e-13 -3.51108e-15 34.5205 
176 1 1 10.9403 9.25719 0 0 0 0 0.437613 0.370288 0 10.9403 9.25719 0 0.324395 -1.16401 -1.08165 4.44089e-16 3.38023e-13 34.5205 
177 1 1 10.9403 8.41563 0.841563 0 0 0 0.437613 0.336625 0.0336625 10.9403 8.41563 0.841563 1.27534 0.788351 0.00768325 -2.77556e-16 -4.70457e-15 -1.53969 
178 1 1 10.0988 9.25719 0.841563 0 0 0 0.40395 0.370288 0.0336625 10.0988 9.25719 0.841563 -1.04833 -1.29863 1.7201 -4.24452e-14 4.27141e-14 -1.53969 
179 1 1 11.7819 8.41563 0 0 0 0 0.471275 0.336625 0 11.7819 8.41563 0 1.80712 0.0971369 0.878847 3.37508e-13 -4.21885e-15 34.5205 
180 1 1 11.7819 9.25719 0.841563 0 0 0 0.471275 0.370288 0.0336625 11.7819 9.25719 0.841563 -0.609269 0.153463 2.36244 4.30767e-14 4.37636e-14 -1.53969 
181 1 1 0 10.0988 0 0 0 0 0 0.40395 0 0 10.0988 0 -0.582295 -0.979442 -0.517088 280.024 -6.32515e-13 280.024 
182 1 1 0.841563 10.9403 0 0 0 0 0.0336625 0.437613 0 0.841563 10.9403 0 -0.494115 -0.700729 -0.248156 -1.72115 6.10623e-16 34.4616 
183 1 1 0.841563 10.0988 0.841563 0 0 0 0.0336625 0.40395 0.0336625 0.841563 10.0988 0.841563 1.49883 -0.517558 -0.983278 -1.58192 -4.2695e-14 -1.58192 
184 1 1 0 10.9403 0.841563 0 0 0 0 0.437613 0.0336625 0 10.9403 0.841563 -1.62331 -0.347152 0.221935 34.4616 7.21645e-16 -1.72115 
185 1 1 1.68313 10.0988 0 0 0 0 0.067325 0.40395 0 1.68313 10.0988 0 0.587016 0.770074 -0.455458 -0.152242 -3.37362e-13 34.5145 
186 1 1 2.52469 10.9403 0 0 0 0 0.100988 0.437613 0 2.52469 10.9403 0 0.607335 -1.25487 -0.571348 -0.0239797 -1.5747e-15 34.5187 
187 1 1 2.52469 10.0988 0.841563 0 0 0 0.100988 0.40395 0.0336625 2.52469 10.0988 0.841563 -0.835627 -0.783179 1.6095 -0.023374 -4.2257e-14 -1.54168 
188 1 1 1.68313 10.9403 0.841563 0 0 0 0.067325 0.437613 0.0336625 1.68313 10.9403 0.841563 1.09822 -0.585663 -0.210299 -0.14316 5.34295e-16 -1.54684 
189 1 1 3.36625 10.0988 0 0 0 0 0.13465 0.40395 0 3.36625 10.0988 0 0.857229 0.0109242 1.05462 -6.93022e-16 -3.36453e-13 34.5205 
190 1 1 4.20781 10.9403 0 0 0 0 0.168313 0.437613 0 4.20781 10.9403 0 -1.08364 -1.48924 -0.605611 1.13687e-13 1.11022e-15 34.5205 
191 1 1 4.20781 10.0988 0.841563 0 0 0 0.168313 0.40395 0.0336625 4.20781 10.0988 0.841563 -0.201122 0.721881 0.774826 1.35766e-14 -4.2303e-14 -1.53969 
192 1 1 3.36625 10.9403 0.841563 0 0 0 0.13465 0.437613 0.0336625 3.36625 10.9403 0.841563 -1.62127 -0.240963 0.635515 -8.35486e-16 -3.05311e-16 -1.53969 
193 1 1 5.04938 10.0988 0 0 0 0 0.201975 0.40395 0 5.04938 10.0988 0 -1.13816 -0.379701 -0.189964 -1.94465e-13 -3.38077e-13 34.5205 
194 1 1 5.89094 10.9403 0 0 0 0 0.235638 0.437613 0 5.89094 10.9403 0 0.0267125 -0.403841 0.656927 1.93315e-13 9.99201e-16 34.5205 
195 1 1 5.89094 10.0988 0.841563 0 0 0 0.235638 0.40395 0.0336625 5.89094 10.0988 0.841563 -1.56987 -0.812079 1.69512 2.10298e-14 -4.33403e-14 -1.53969 
196 1 1 5.04938 10.9403 0.841563 0 0 0 0.201975 0.437613 0.0336625 5.04938 10.9403 0.841563 0.643868 -2.66168 0.93797 -2.29699e-14 -1.38778e-15 -1.53969 
197 1 1 6.7325 10.0988 0 0 0 0 0.2693 0.40395 0 6.7325 10.0988 0 0.554705 -0.788381 0.588159 5.59448e-16 -3.36772e-13 34.5205 
198 1 1 7.57407 10.9403 0 0 0 0 0.302963 0.437613 0 7.57407 10.9403 0 -0.198013 0.607399 -0.253223 -1.88235e-13 -6.66134e-16 34.5205 
199 1 1 7.57407 10.0988 0.841563 0 0 0 0.302963 0.40395 0.0336625 7.57407 10.0988 0.841563 -0.918014 -0.138622 1.15749 -1.67481e-14 -4.34999e-14 -1.53969 
200 1 1 6.7325 10.9403 0.841563 0 0 0 0.2693 0.437613 0.0336625 6.7325 10.9403 0.841563 -0.25131 0.594406 0.856826 5.44053e-16 -2.498e-16 -1.53969 
201 1 1 8.41563 10.0988 0 0 0 0 0.336625 0.40395 0 8.41563 10.0988 0 0.973214 -0.144047 1.99659 -3.44776e-15 -3.34552e-13 34.5205 
202 1 1 9.25719 10.9403 0 0 0 0 0.370288 0.437613 0 9.25719 10.9403 0 -1.10103 -1.3802 -0.91984 3.40039e-13 2.56501e-15 34.5205 
203 1 1 9.25719 10.0988 0.841563 0 0 0 0.370288 0.40395 0.0336625 9.25719 10.0988 0.841563 -0.187801 -0.466282 -0.491767 4.1446e-14 -4.27878e-14 -1.53969 
204 1 1 8.41563 10.9403 0.841563 0 0 0 0.336625 0.437613 0.0336625 8.41563 10.9403 0.841563 -0.971714 0.79162 -1.02987 -4.00764e-15 -3.05311e-16 -1.53969 
205 1 1 10.0988 10.0988 0 0 0 0 0.40395 0.40395 0 10.0988 10.0988 0 -0.296415 1.71555 -1.435 -3.38937e-13 -3.39572e-13 34.5205 
206 1 1 10.9403 10.9403 0 0 0 0 0.437613 0.437613 0 10.9403 10.9403 0 -0.0603397 2.07601 -0.160448 4.44089e-16 -1.15186e-15 34.5205 
207 1 1 10.9403 10.0988 0.841563 0 0 0 0.437613 0.40395 0.0336625 10.9403 10.0988 0.841563 -0.490891 -0.156244 -0.54982 1.66533e-16 -4.35207e-14 -1.53969 
208 1 1 10.0988 10.9403 0.841563 0 0 0 0.40395 0.437613 0.0336625 10.0988 10.9403 0.841563 0.139406 -1.3117 0.58545 -4.19248e-14 -3.79904e-16 -1.53969 
209 1 1 11.7819 10.0988 0 0 0 0 0.471275 0.40395 0 11.7819 10.0988 0 -0.716499 0.550017 -0.0318268 3.37508e-13 -3.37064e-13 34.5205 
210 1 1 11.7819 10.9403 0.841563 0 0 0 0.471275 0.437613 0.0336625 11.7819 10.9403 0.841563 1.00364 0.0218713 0.177998 4.22995e-14 -1.11022e-16 -1.53969 
211 1 1 0 11.7819 0 0 0 0 0 0.471275 0 0 11.7819 0 0.696648 -0.725682 -0.951394 280.024 6.32383e-13 280.024 
212 1 1 0.841563 11.7819 0.841563 0 0 0 0.0336625 0.471275 0.0336625 0.841563 11.7819 0.841563 -0.0461833 -0.752274 -0.347347 -1.58192 4.29101e-14 -1.58192 
213 1 1 1.68313 11.7819 0 0 0 0 0.067325 0.471275 0 1.68313 11.7819 0 1.07587 0.240653 -1.09365 -0.152242 3.36696e-13 34.5145 
214 1 1 2.52469 11.7819 0.841563 0 0 0 0.100988 0.471275 0.0336625 2.52469 11.7819 0.841563 0.00931053 -0.820989 0.369489 -0.023374 4.63501e-14 -1.54168 
215 1 1 3.36625 11.7819 0 0 0 0 0.13465 0.471275 0 3.36625 11.7819 0 -2.02321 -0.725296 -0.214989 3.30465e-16 3.35731e-13 34.5205 
216 1 1 4.20781 11.7819 0.841563 0 0 0 0.168313 0.471275 0.0336625 4.20781 11.7819 0.841563 -2.02271 0.320649 -0.307919 1.34901e-14 4.22995e-14 -1.53969 