ITEM: TIMESTEP
30000
ITEM: NUMBER OF ATOMS
13500
ITEM: BOX BOUNDS
0 25
0 25
0 25
ITEM: ATOMS id type mass x y z ix iy iz xs ys zs xu yu zu vx vy vz fx fy fz 
622 1 1 5.76705 9.87191 1.60461 0 0 0 0.230682 0.394876 0.0641842 5.76705 9.87191 1.60461 -0.122468 -0.914382 -2.55632 19.3511 17.0165 6.71988 
69 1 1 3.00039 5.98139 1.69339 0 0 0 0.120016 0.239256 0.0677357 3.00039 5.98139 1.69339 -0.820659 0.697076 -1.41064 -5.49572 -15.389 12.363 
2914 1 1 3.99733 12.3025 2.65526 0 0 1 0.159893 0.492101 0.106211 3.99733 12.3025 27.6553 0.258539 1.62395 0.269941 12.2377 -6.85596 -7.84674 
319 1 1 0.358505 7.43516 2.92421 0 0 0 0.0143402 0.297407 0.116969 0.358505 7.43516 2.92421 -1.09726 0.224737 -0.838714 18.1593 5.35624 -1.75485 
3798 1 1 10.2008 0.372176 3.92255 0 1 0 0.408032 0.014887 0.156902 10.2008 25.3722 3.92255 -0.117542 -1.41009 -0.216573 8.01809 9.3313 2.08376 
10713 1 1 10.2983 0.961638 5.06994 0 1 0 0.411934 0.0384655 0.202798 10.2983 25.9616 5.06994 0.108849 0.0603476 2.21135 -26.8332 6.02177 -12.4228 
3624 1 1 3.8667 5.84631 1.0266 0 0 0 0.154668 0.233852 0.0410638 3.8667 5.84631 1.0266 0.194576 -0.128598 -1.12541 -11.6951 -22.5245 -36.6335 
6869 1 1 2.43675 5.58008 3.53425 1 0 0 0.0974699 0.223203 0.14137 27.4367 5.58008 3.53425 -1.53968 0.526767 -0.248709 -10.2067 1.46026 -19.7797 
574 1 1 5.45712 5.68914 4.93394 0 0 0 0.218285 0.227565 0.197357 5.45712 5.68914 4.93394 0.492167 -0.621128 0.845885 17.6466 -11.7843 -4.1744 
7288 1 1 4.49155 8.68222 0.408367 1 0 0 0.179662 0.347289 0.0163347 29.4915 8.68222 0.408367 -1.49075 -2.08399 -0.758246 -9.41008 -2.61384 -25.4263 
9561 1 1 0.555371 5.35936 2.54479 1 0 1 0.0222148 0.214374 0.101791 25.5554 5.35936 27.5448 1.22012 0.122735 -0.989164 -5.02895 -3.07711 3.25017 
3424 1 1 1.55178 7.77045 3.39604 0 0 0 0.0620713 0.310818 0.135842 1.55178 7.77045 3.39604 0.777034 0.242955 -0.00616215 15.503 7.40156 -7.54436 
162 1 1 1.45422 2.01377 1.81725 0 0 0 0.0581686 0.080551 0.0726901 1.45422 2.01377 1.81725 0.657587 0.50016 1.05723 49.5939 18.3932 20.4053 
6177 1 1 11.4018 11.7306 1.93526 0 0 1 0.456071 0.469225 0.0774104 11.4018 11.7306 26.9353 -0.310727 0.841985 0.612213 9.00445 -4.43906 -11.4061 
3644 1 1 9.55052 7.2742 0.888542 0 0 0 0.382021 0.290968 0.0355417 9.55052 7.2742 0.888542 0.259466 0.0472237 -0.104234 -17.7136 -4.91961 -0.235148 
3608 1 1 5.33234 7.37705 1.11026 0 0 0 0.213294 0.295082 0.0444106 5.33234 7.37705 1.11026 -0.269893 -0.472419 -0.319175 -0.815313 -19.7083 -16.4139 
9441 1 1 1.4711 4.95695 5.93623 1 0 1 0.058844 0.198278 0.237449 26.4711 4.95695 30.9362 -1.09208 1.10898 -1.78618 25.3555 -31.9753 1.97165 
3346 1 1 2.72415 11.4471 4.92197 0 0 1 0.108966 0.457882 0.196879 2.72415 11.4471 29.922 0.101542 0.537409 0.135276 -1.98897 -8.36381 -0.691321 
3252 1 1 4.93111 8.40424 2.52564 0 0 1 0.197244 0.33617 0.101026 4.93111 8.40424 27.5256 -0.296633 -1.84835 1.84046 12.9097 30.9143 18.4515 
368 1 1 11.0041 7.5606 3.96018 0 0 0 0.440164 0.302424 0.158407 11.0041 7.5606 3.96018 0.771136 -0.261638 1.40119 -0.769123 -17.6977 -17.9292 
12733 1 1 0.777992 11.7576 0.278094 1 0 1 0.0311197 0.470303 0.0111237 25.778 11.7576 25.2781 -0.245108 0.512352 -0.37333 -9.38624 -13.033 18.2682 
803 1 1 7.70507 8.76258 5.53591 0 0 0 0.308203 0.350503 0.221437 7.70507 8.76258 5.53591 0.151535 1.63245 1.08469 -21.9601 8.12457 -27.4029 
616 1 1 9.66944 11.7432 0.581761 0 0 0 0.386778 0.469728 0.0232704 9.66944 11.7432 0.581761 2.62745 0.308386 -1.05034 -0.0822282 -36.4592 3.9594 
179 1 1 11.6283 3.03199 1.34676 0 0 0 0.465131 0.12128 0.0538704 11.6283 3.03199 1.34676 0.945324 -2.09341 -0.35643 -4.33748 0.814203 9.48542 
3377 1 1 3.71978 12.4044 3.68458 0 0 0 0.148791 0.496176 0.147383 3.71978 12.4044 3.68458 -0.98349 -0.491975 -1.07591 -15.983 37.4425 -11.2283 
9790 1 1 2.52345 10.1057 5.90041 1 0 1 0.100938 0.404228 0.236017 27.5235 10.1057 30.9004 0.003954 0.357311 1.16259 -1.83398 -7.78409 2.97005 
1183 1 1 5.83256 5.65611 6.13434 0 0 0 0.233302 0.226244 0.245373 5.83256 5.65611 6.13434 1.96379 0.775239 -1.50997 -11.8584 -0.367961 2.73151 
142 1 1 8.08562 8.08733 1.47909 0 0 0 0.323425 0.323493 0.0591637 8.08562 8.08733 1.47909 1.7579 -0.748146 0.248035 47.4864 14.9156 4.89026 
999 1 1 9.83915 10.4996 2.41825 0 0 0 0.393566 0.419985 0.0967302 9.83915 10.4996 2.41825 -0.0546324 -0.750682 1.37391 10.3805 -13.837 -8.82631 
408 1 1 2.41349 4.14503 2.16072 0 0 0 0.0965396 0.165801 0.0864289 2.41349 4.14503 2.16072 -2.06112 -1.25183 -0.608756 -0.027354 -28.7406 16.2762 
121 1 1 1.06858 4.15731 3.91738 0 0 0 0.0427431 0.166293 0.156695 1.06858 4.15731 3.91738 0.429294 0.384661 0.652039 -40.8994 -14.4985 11.585 
463 1 1 5.95515 2.82189 4.38103 0 0 0 0.238206 0.112876 0.175241 5.95515 2.82189 4.38103 0.536082 0.408081 1.49186 7.12819 5.37668 -21.6183 
91 1 1 1.92488 2.73031 3.92683 0 0 0 0.0769953 0.109212 0.157073 1.92488 2.73031 3.92683 -0.90198 1.69178 -1.14794 -4.41175 15.0022 8.73587 
7769 1 1 3.26519 7.81087 0.857639 1 0 0 0.130607 0.312435 0.0343056 28.2652 7.81087 0.857639 -0.37982 -1.83601 -0.0976054 -10.3185 -13.8896 -9.03399 
3283 1 1 7.38932 8.91699 4.39254 0 0 1 0.295573 0.356679 0.175701 7.38932 8.91699 29.3925 -0.355884 -0.690475 -0.570701 -7.47419 17.8855 -19.9757 
3788 1 1 6.92973 3.91833 1.56435 0 1 0 0.277189 0.156733 0.0625738 6.92973 28.9183 1.56435 -0.289176 1.05634 -0.766402 16.6469 4.54139 13.5811 
1258 1 1 5.65019 5.16908 3.70385 0 0 0 0.226008 0.206763 0.148154 5.65019 5.16908 3.70385 0.874227 -0.229922 0.0200565 36.762 7.41717 -1.92806 
3704 1 1 11.0252 12.1487 2.78853 0 0 0 0.441007 0.485947 0.111541 11.0252 12.1487 2.78853 -1.79289 0.336119 -0.258754 45.113 -0.432933 33.8987 
770 1 1 2.1668 3.46824 1.42702 0 0 0 0.0866719 0.138729 0.0570807 2.1668 3.46824 1.42702 -0.792592 2.05351 -0.0219355 -5.19025 -6.46689 -5.20541 
3570 1 1 11.0009 2.1562 3.84253 0 1 0 0.440036 0.0862479 0.153701 11.0009 27.1562 3.84253 0.022224 0.173136 0.84942 56.6631 7.16717 -62.7256 
10768 1 1 10.7218 4.36111 4.69354 1 1 0 0.428871 0.174444 0.187742 35.7218 29.3611 4.69354 -0.0467054 -0.573262 2.40336 -4.89216 2.332 5.14397 
7350 1 1 0.983328 6.5439 3.00976 1 0 0 0.0393331 0.261756 0.12039 25.9833 6.5439 3.00976 0.919519 -1.65749 -0.987537 -2.66296 -8.98629 2.59941 
713 1 1 4.75589 1.96489 2.86429 0 0 0 0.190236 0.0785955 0.114572 4.75589 1.96489 2.86429 1.8235 0.121653 -0.180407 0.309867 -16.79 -9.79413 
3342 1 1 1.47964 8.94755 0.463652 0 0 1 0.0591855 0.357902 0.0185461 1.47964 8.94755 25.4637 1.7448 -0.176004 -0.72566 -19.9624 3.55175 -7.29174 
646 1 1 11.1248 8.71334 0.392739 0 0 0 0.44499 0.348533 0.0157096 11.1248 8.71334 0.392739 0.626289 1.81102 -0.579293 19.6442 18.3521 0.0276877 
7167 1 1 2.6845 11.137 1.0798 1 0 0 0.10738 0.445478 0.0431918 27.6845 11.137 1.0798 -0.822352 1.70366 0.0738427 -3.76296 17.9803 -31.4521 
309 1 1 8.73418 6.49588 2.46631 0 0 0 0.349367 0.259835 0.0986525 8.73418 6.49588 2.46631 -0.374492 -0.55969 1.01281 -17.4876 8.73044 -14.6433 
3194 1 1 1.73272 3.71564 3.31325 0 0 1 0.0693088 0.148626 0.13253 1.73272 3.71564 28.3133 -1.15716 0.407657 0.579812 29.3326 -5.25807 -13.6457 
3554 1 1 8.06183 0.524852 2.81596 0 1 0 0.322473 0.0209941 0.112638 8.06183 25.5249 2.81596 0.604932 -0.725877 0.41001 5.67151 -3.76421 15.8515 
127 1 1 5.35191 7.53882 2.79355 0 0 0 0.214076 0.301553 0.111742 5.35191 7.53882 2.79355 0.0239882 0.709825 0.377968 9.51419 -25.106 15.3519 
10053 1 1 11.6876 5.81798 2.64057 0 0 1 0.467505 0.232719 0.105623 11.6876 5.81798 27.6406 0.507491 0.756503 -0.588363 -17.9133 -13.6279 7.46985 
3443 1 1 12.0771 0.688616 4.53564 0 1 0 0.483085 0.0275446 0.181426 12.0771 25.6886 4.53564 0.0745262 0.704791 0.38539 0.698667 6.11291 2.0677 
114 1 1 9.65644 6.27694 2.77967 0 0 0 0.386258 0.251078 0.111187 9.65644 6.27694 2.77967 0.796285 -1.1819 -0.130826 2.76527 -13.5175 -1.36311 
3366 1 1 1.5309 7.56886 1.32898 0 0 1 0.0612362 0.302754 0.0531591 1.5309 7.56886 26.329 -2.95663 0.800526 0.508054 15.9954 -53.8573 14.4626 
10521 1 1 11.1265 0.17369 4.78682 0 1 0 0.445062 0.00694761 0.191473 11.1265 25.1737 4.78682 2.55995 -0.753564 0.469604 2.19194 -54.2413 10.3887 
7835 1 1 11.7217 7.61114 1.92587 0 0 0 0.468869 0.304446 0.0770346 11.7217 7.61114 1.92587 -0.21116 -1.99871 -0.768628 5.59619 -20.8797 0.832396 
404 1 1 11.5207 5.98206 0.837254 0 0 0 0.46083 0.239283 0.0334901 11.5207 5.98206 0.837254 0.0930381 -0.409901 0.286213 20.1565 -3.82597 -3.31721 
9792 1 1 1.60082 4.58992 2.69757 1 0 1 0.0640329 0.183597 0.107903 26.6008 4.58992 27.6976 0.641893 -0.388173 -0.0567467 -29.7374 -12.1346 9.23148 
810 1 1 8.72275 10.8983 4.84744 0 0 0 0.34891 0.435932 0.193898 8.72275 10.8983 4.84744 -0.518683 0.51221 0.0902268 15.7391 23.0529 -29.9881 
885 1 1 9.23795 7.43622 3.1794 0 0 0 0.369518 0.297449 0.127176 9.23795 7.43622 3.1794 -0.319528 -0.574644 -0.490699 -9.82885 -0.342502 -5.04874 
3547 1 1 5.68374 0.190676 3.46384 0 1 0 0.22735 0.00762705 0.138553 5.68374 25.1907 3.46384 0.99179 2.01339 -0.723266 -5.75828 -32.2864 12.5817 
872 1 1 9.16759 11.0474 1.32124 0 0 0 0.366704 0.441896 0.0528495 9.16759 11.0474 1.32124 0.332382 0.397545 -0.136136 26.9086 20.7661 2.64364 
19 1 1 7.76372 3.01607 4.72993 0 0 0 0.310549 0.120643 0.189197 7.76372 3.01607 4.72993 -2.31295 1.2729 0.0924303 34.114 -13.4855 14.2023 
11267 1 1 10.9732 9.52536 4.18216 0 0 0 0.438929 0.381015 0.167286 10.9732 9.52536 4.18216 0.588597 1.14376 2.1872 42.0861 11.2839 2.92452 
358 1 1 8.05929 4.81761 4.14092 0 0 0 0.322372 0.192704 0.165637 8.05929 4.81761 4.14092 -0.369342 1.7108 1.04404 -5.73954 10.9261 6.932 
3052 1 1 2.73623 3.17764 3.07132 0 0 1 0.109449 0.127106 0.122853 2.73623 3.17764 28.0713 -0.00525982 -0.104751 -1.76541 -19.3968 27.2652 15.3267 
4759 1 1 9.33582 7.62539 5.32382 0 0 0 0.373433 0.305016 0.212953 9.33582 7.62539 5.32382 -0.848316 0.492474 -0.392539 5.77994 -50.5374 7.89852 
10853 1 1 10.7365 11.3059 3.43212 0 0 0 0.429461 0.452237 0.137285 10.7365 11.3059 3.43212 -0.155377 0.746311 0.473631 -2.18628 21.3709 -4.50293 
2638 1 1 10.2943 3.2904 0.491158 0 0 1 0.41177 0.131616 0.0196463 10.2943 3.2904 25.4912 3.0971 -0.451101 0.761117 -1.65811 36.3479 27.24 
218 1 1 2.80468 4.31148 3.19416 0 0 0 0.112187 0.172459 0.127766 2.80468 4.31148 3.19416 0.57905 1.1624 -1.63497 0.319902 -1.84134 3.81876 
4453 1 1 3.55704 0.69966 5.44489 0 1 0 0.142281 0.0279864 0.217796 3.55704 25.6997 5.44489 0.826619 -2.34702 0.637879 -8.36651 -20.8143 11.5599 
10593 1 1 10.3413 12.2764 4.96099 0 0 0 0.413651 0.491056 0.198439 10.3413 12.2764 4.96099 -0.545108 0.183609 -0.768869 -26.7797 4.73081 -24.9024 
8091 1 1 8.63124 11.0926 3.63027 0 0 0 0.34525 0.443705 0.145211 8.63124 11.0926 3.63027 -0.508083 -1.20836 0.44387 25.4144 -1.30796 1.21199 
9601 1 1 10.4946 11.6857 1.29358 0 0 1 0.419784 0.467429 0.0517433 10.4946 11.6857 26.2936 -0.326094 -0.651837 0.150679 5.19791 15.1033 1.53377 
75 1 1 7.35231 0.424835 3.68523 0 0 0 0.294092 0.0169934 0.147409 7.35231 0.424835 3.68523 -1.68071 0.28807 1.57717 -8.07557 32.388 -44.7653 
11298 1 1 6.67875 12.0943 4.55516 0 0 0 0.26715 0.483772 0.182207 6.67875 12.0943 4.55516 0.780273 -0.756414 -0.0251193 -15.6207 -11.2805 3.50684 
2861 1 1 4.83519 6.63298 0.426201 0 0 1 0.193408 0.265319 0.017048 4.83519 6.63298 25.4262 1.26471 -0.630708 -0.206423 10.2409 -12.9984 -21.2042 
8401 1 1 11.6004 9.66934 5.15593 0 0 0 0.464016 0.386774 0.206237 11.6004 9.66934 5.15593 -0.61632 -0.372164 1.77505 0.557894 4.42447 6.89276 
3289 1 1 6.67174 5.99123 1.82419 0 0 1 0.26687 0.239649 0.0729677 6.67174 5.99123 26.8242 0.524463 0.515232 0.540262 -2.31645 -5.37613 0.0392792 
1639 1 1 5.91655 10.353 4.80594 0 0 0 0.236662 0.414121 0.192238 5.91655 10.353 4.80594 -0.0768877 -1.46059 -0.354762 -11.7134 -23.0741 4.63339 
398 1 1 8.40039 5.41988 5.06776 0 0 0 0.336016 0.216795 0.20271 8.40039 5.41988 5.06776 0.237998 -1.56147 -1.55097 11.6515 6.75868 -2.42495 
546 1 1 7.88577 5.62375 0.790826 0 0 0 0.315431 0.22495 0.031633 7.88577 5.62375 0.790826 -2.02153 -0.992872 0.472393 -6.79563 16.442 1.61361 
143 1 1 10.2141 6.08563 0.262596 0 0 0 0.408564 0.243425 0.0105038 10.2141 6.08563 0.262596 -0.127646 0.740443 -0.0531516 -4.66587 13.9415 -1.73185 
6935 1 1 12.0677 9.66205 1.70079 0 0 0 0.482709 0.386482 0.0680317 12.0677 9.66205 1.70079 -0.879366 0.552778 -1.30181 15.8609 9.56775 -31.3503 
13054 1 1 10.1396 12.1835 3.86187 0 0 1 0.405583 0.48734 0.154475 10.1396 12.1835 28.8619 -0.302708 -1.03132 -0.505793 8.96529 -4.87009 -0.928041 
3771 1 1 7.67944 0.599978 1.81901 0 1 0 0.307178 0.0239991 0.0727604 7.67944 25.6 1.81901 0.378924 0.794738 0.562197 10.5176 0.00714397 -6.38039 
2525 1 1 1.28002 5.40385 0.792607 0 0 1 0.0512008 0.216154 0.0317043 1.28002 5.40385 25.7926 -0.210628 -0.624941 0.721072 -1.35356 4.08845 -17.229 
50 1 1 6.43354 5.47366 4.36714 0 0 0 0.257342 0.218946 0.174685 6.43354 5.47366 4.36714 0.29614 2.15698 -0.108573 -17.3401 -13.0809 -1.82164 
4454 1 1 7.73817 5.74346 6.1504 0 1 0 0.309527 0.229738 0.246016 7.73817 30.7435 6.1504 1.46551 0.102255 -0.354429 -18.2378 -12.0883 11.2385 
3357 1 1 9.29754 8.94576 0.730884 0 0 1 0.371901 0.357831 0.0292353 9.29754 8.94576 25.7309 -2.25005 -0.425347 -0.0272923 -18.7013 8.74375 19.6527 
55 1 1 11.2699 4.82761 1.40367 0 0 0 0.450797 0.193104 0.0561468 11.2699 4.82761 1.40367 -0.638837 -0.83415 -0.324159 -33.4705 20.8008 -2.01806 
3200 1 1 10.5011 5.40744 1.12851 0 0 1 0.420045 0.216298 0.0451402 10.5011 5.40744 26.1285 1.40001 0.217907 0.621207 -44.2436 -11.1384 -39.2725 
3245 1 1 0.482579 1.07013 3.24366 0 0 1 0.0193032 0.0428052 0.129746 0.482579 1.07013 28.2437 -1.95841 -0.0517022 -0.0977764 0.829646 1.19074 3.3954 
6999 1 1 4.13305 4.87969 5.28186 1 0 0 0.165322 0.195188 0.211274 29.133 4.87969 5.28186 0.197136 0.0288594 2.3388 9.42872 14.6026 -5.16187 
6814 1 1 9.29133 4.79096 2.24375 0 0 0 0.371653 0.191638 0.08975 9.29133 4.79096 2.24375 -0.175203 -0.249598 -1.38122 -13.1814 -0.350849 -47.1641 
7187 1 1 10.2255 8.42752 0.738455 0 0 0 0.40902 0.337101 0.0295382 10.2255 8.42752 0.738455 -0.128561 0.47306 0.938953 -10.1127 -17.6729 -2.71454 
3492 1 1 6.24797 2.08188 1.199 0 1 0 0.249919 0.0832753 0.0479598 6.24797 27.0819 1.199 0.267279 -1.66464 -0.336467 3.00828 27.2884 -16.5636 
2793 1 1 0.237702 6.58119 0.95719 0 0 1 0.00950807 0.263248 0.0382876 0.237702 6.58119 25.9572 -0.101358 1.23983 -1.56413 12.439 27.8598 26.4387 
7743 1 1 11.1672 10.5574 4.5128 0 0 0 0.44669 0.422296 0.180512 11.1672 10.5574 4.5128 -0.938028 1.72425 0.735009 8.14153 -3.8134 20.407 
1068 1 1 7.63038 4.90546 5.44802 0 0 0 0.305215 0.196218 0.217921 7.63038 4.90546 5.44802 1.34792 0.795732 -0.797413 -3.67041 6.41168 5.22117 
10990 1 1 1.40291 0.670088 5.8631 1 1 0 0.0561163 0.0268035 0.234524 26.4029 25.6701 5.8631 -1.50878 0.595868 -0.866093 -3.13347 1.78522 1.48762 
778 1 1 6.547 4.90511 2.03393 0 0 0 0.26188 0.196205 0.0813572 6.547 4.90511 2.03393 0.943387 1.53133 0.133399 2.11287 -3.01365 -15.7967 
7184 1 1 10.7656 9.61453 3.15501 1 0 0 0.430625 0.384581 0.1262 35.7656 9.61453 3.15501 2.05338 -0.590767 -1.15147 1.38572 -11.4091 -12.5136 
2800 1 1 3.54278 5.65686 5.81475 0 0 1 0.141711 0.226274 0.23259 3.54278 5.65686 30.8148 -1.48182 0.804946 0.578452 10.0191 4.25209 5.86609 
7097 1 1 4.9068 6.8754 4.26848 0 0 0 0.196272 0.275016 0.170739 4.9068 6.8754 4.26848 -0.588649 1.63649 1.12606 14.6665 -2.59388 -7.12045 
4671 1 1 4.47789 3.26799 4.23632 0 1 0 0.179116 0.130719 0.169453 4.47789 28.268 4.23632 0.489578 0.24707 -0.293927 16.6602 -4.98759 1.64953 
7505 1 1 2.76491 2.20738 1.24565 1 0 0 0.110596 0.0882951 0.049826 27.7649 2.20738 1.24565 -0.676724 0.957238 1.03518 -36.3766 -26.9472 -3.55221 
3271 1 1 1.18024 6.50451 1.48549 0 0 1 0.0472094 0.26018 0.0594194 1.18024 6.50451 26.4855 0.689229 -0.944385 -0.230292 16.2378 8.91257 -10.9387 
6194 1 1 8.71744 9.84628 1.24512 0 0 1 0.348697 0.393851 0.0498047 8.71744 9.84628 26.2451 -1.35926 -0.395533 -0.711596 5.63815 4.98416 3.68387 
7348 1 1 2.77377 8.06765 4.76734 1 0 0 0.110951 0.322706 0.190694 27.7738 8.06765 4.76734 0.158207 0.513065 0.401218 -6.15692 14.1588 5.9431 
10590 1 1 1.89046 12.3145 3.38706 1 0 0 0.0756183 0.492579 0.135482 26.8905 12.3145 3.38706 -0.816159 -0.101927 -0.23671 9.54351 9.9498 -15.4842 
4117 1 1 6.52355 1.98113 4.01273 0 1 0 0.260942 0.079245 0.160509 6.52355 26.9811 4.01273 -0.170293 -0.260894 -0.419253 1.60608 -8.23372 -28.9878 
2881 1 1 7.21849 11.5934 0.964987 0 0 1 0.28874 0.463735 0.0385995 7.21849 11.5934 25.965 -0.665221 -0.0881583 1.24638 1.19354 1.45353 -7.51519 
567 1 1 10.5142 7.20875 4.90439 0 0 0 0.420567 0.28835 0.196175 10.5142 7.20875 4.90439 1.0816 0.345663 0.00178346 -5.43449 -3.72661 0.495685 
788 1 1 6.62973 11.1912 4.04751 0 0 0 0.265189 0.447649 0.161901 6.62973 11.1912 4.04751 1.26504 -0.194134 -0.1447 -4.9992 -9.17992 -6.21481 
3325 1 1 8.43552 5.34137 3.19153 0 0 1 0.337421 0.213655 0.127661 8.43552 5.34137 28.1915 0.154504 0.728433 -0.788135 3.24058 -11.0699 2.95192 
6876 1 1 9.59801 6.99869 1.96528 0 0 0 0.38392 0.279948 0.0786111 9.59801 6.99869 1.96528 0.480982 0.585571 -1.21166 0.598938 9.47181 10.2384 
3903 1 1 0.966638 9.30894 2.20923 0 0 0 0.0386655 0.372358 0.0883694 0.966638 9.30894 2.20923 -0.194435 -0.171623 -0.497512 14.4547 -11.539 6.07174 
10776 1 1 10.3941 3.04625 2.6232 0 1 0 0.415763 0.12185 0.104928 10.3941 28.0462 2.6232 0.556944 1.19363 -2.57689 -37.1083 12.3927 -97.9549 
112 1 1 7.88359 7.39426 2.38483 0 0 0 0.315344 0.29577 0.0953931 7.88359 7.39426 2.38483 -0.52808 0.584955 0.744756 13.6611 11.6404 1.56108 
7420 1 1 0.747446 11.2148 2.00067 1 0 0 0.0298978 0.448592 0.0800266 25.7474 11.2148 2.00067 -2.21995 1.2394 0.565526 3.25197 13.2152 -13.6906 
8733 1 1 5.87922 8.89609 6.10561 0 0 0 0.235169 0.355844 0.244224 5.87922 8.89609 6.10561 1.71563 -1.62386 -0.371315 3.57077 2.70979 9.89157 
10364 1 1 6.10143 3.76982 2.25466 1 0 0 0.244057 0.150793 0.0901865 31.1014 3.76982 2.25466 2.09173 -0.708145 -1.63196 10.8551 -10.2529 -7.02841 
9651 1 1 2.21175 10.1736 0.372327 1 0 1 0.0884698 0.406944 0.0148931 27.2117 10.1736 25.3723 0.199831 -0.207285 1.36224 5.71591 -5.82695 -19.5143 
9604 1 1 11.0964 8.22345 1.40615 0 0 1 0.443858 0.328938 0.056246 11.0964 8.22345 26.4061 -1.23496 -1.72774 0.0577839 -0.8017 7.93288 -14.2174 
378 1 1 3.38361 5.03003 2.02387 0 0 0 0.135344 0.201201 0.0809549 3.38361 5.03003 2.02387 -0.486383 -0.537592 -0.327624 34.2717 17.1851 24.639 
6873 1 1 10.1735 9.66691 1.29026 0 0 0 0.406941 0.386676 0.0516105 10.1735 9.66691 1.29026 -0.904267 -0.746267 -0.947742 -7.28519 -14.865 2.06857 
115 1 1 5.31655 9.44801 0.802219 0 0 0 0.212662 0.37792 0.0320888 5.31655 9.44801 0.802219 -0.705221 0.479281 1.2258 -19.8612 -23.8818 -9.57168 
334 1 1 5.20763 3.74884 0.716757 0 0 0 0.208305 0.149954 0.0286703 5.20763 3.74884 0.716757 -0.585022 1.95853 -1.58504 -19.0022 -2.38767 10.1263 
3363 1 1 0.945706 4.36483 0.448132 0 0 1 0.0378282 0.174593 0.0179253 0.945706 4.36483 25.4481 0.239783 0.808704 -0.408989 -0.160122 7.82692 -20.5061 
9654 1 1 3.22192 10.7487 0.0540342 1 0 1 0.128877 0.42995 0.00216137 28.2219 10.7487 25.054 -0.435855 -0.399968 1.02851 -4.90252 27.0394 17.8765 
809 1 1 0.363665 5.61508 5.03791 0 0 0 0.0145466 0.224603 0.201516 0.363665 5.61508 5.03791 -0.0893053 0.226848 -0.331084 8.73941 -10.8364 -3.52142 
7068 1 1 10.6699 6.35608 4.07394 0 0 0 0.426796 0.254243 0.162958 10.6699 6.35608 4.07394 0.342436 0.873533 -0.876732 12.6832 48.2095 2.69069 
6747 1 1 9.37024 1.44624 0.424924 0 1 1 0.374809 0.0578496 0.016997 9.37024 26.4462 25.4249 0.119198 0.212539 1.24205 1.42978 -6.17141 -17.9852 
356 1 1 4.32108 -0.00836342 0.693823 0 0 0 0.172843 -0.000334537 0.0277529 4.32108 -0.00836342 0.693823 -0.192322 0.219019 0.628797 -6.74848 23.0892 6.13905 
2807 1 1 2.27835 6.82045 1.91173 0 0 1 0.091134 0.272818 0.0764693 2.27835 6.82045 26.9117 1.05478 -0.878669 0.0968443 -7.19773 -11.735 -9.55704 
7969 1 1 12.1561 4.96871 0.57373 0 0 0 0.486245 0.198749 0.0229492 12.1561 4.96871 0.57373 -0.509538 -1.41208 0.493147 0.235565 -2.27912 19.2637 
10118 1 1 0.547308 2.22627 0.182183 1 0 1 0.0218923 0.0890509 0.0072873 25.5473 2.22627 25.1822 0.34967 0.206263 -1.25868 0.619539 -0.785214 5.90423 
897 1 1 10.7539 12.5132 5.83316 0 0 0 0.430156 0.500529 0.233326 10.7539 12.5132 5.83316 1.11249 0.459487 -0.420686 35.0517 5.18082 0.863236 
8672 1 1 10.2048 6.43631 1.29904 0 0 0 0.408191 0.257452 0.0519616 10.2048 6.43631 1.29904 0.0121124 0.349107 -0.996655 13.3099 21.4545 -18.2865 
1285 1 1 6.64872 10.9606 5.1258 0 0 0 0.265949 0.438423 0.205032 6.64872 10.9606 5.1258 1.10338 0.646925 0.132755 16.8441 17.3341 2.47829 
6854 1 1 2.28523 2.74804 5.81407 1 0 0 0.0914091 0.109922 0.232563 27.2852 2.74804 5.81407 -1.42034 -1.15926 0.741447 -2.36616 -38.6213 10.1094 
832 1 1 5.61484 2.09832 2.10429 0 0 0 0.224594 0.0839329 0.0841714 5.61484 2.09832 2.10429 0.480367 1.47816 0.943543 2.51867 37.3842 -24.1666 
3203 1 1 7.35701 3.78551 0.561133 0 0 1 0.29428 0.151421 0.0224453 7.35701 3.78551 25.5611 0.772875 0.952023 0.732229 6.59132 -1.93496 -2.73691 
1293 1 1 12.3548 8.18793 5.98005 0 0 0 0.49419 0.327517 0.239202 12.3548 8.18793 5.98005 1.80278 -0.225851 0.207445 -1.87993 -3.75957 -3.94591 
3036 1 1 2.59242 4.87038 1.489 0 0 1 0.103697 0.194815 0.0595601 2.59242 4.87038 26.489 -0.988479 -0.057044 -0.469285 -35.2353 8.50261 -43.6198 
621 1 1 11.5622 8.73378 4.77684 0 0 0 0.46249 0.349351 0.191074 11.5622 8.73378 4.77684 -0.344219 -0.661294 -0.379148 3.9362 -14.7724 -2.55203 
2790 1 1 9.38832 12.2077 1.52037 0 0 1 0.375533 0.488309 0.0608147 9.38832 12.2077 26.5204 0.343671 1.08096 0.94495 29.0414 -25.9983 -29.2763 
305 1 1 11.3359 10.7145 0.445197 0 0 0 0.453436 0.428579 0.0178079 11.3359 10.7145 0.445197 -1.65421 -0.929686 -0.0921526 -1.26911 -6.70455 -29.3867 
562 1 1 11.7125 9.61604 0.484372 0 0 0 0.468499 0.384641 0.0193749 11.7125 9.61604 0.484372 -0.0343545 0.1154 -0.402236 -0.697523 -4.2694 -1.50135 
1603 1 1 11.1456 5.06053 5.46009 0 0 0 0.445824 0.202421 0.218404 11.1456 5.06053 5.46009 0.56207 1.36128 -0.032089 -5.37722 6.30047 -11.5144 
1058 1 1 1.79164 10.988 4.62317 0 0 0 0.0716656 0.43952 0.184927 1.79164 10.988 4.62317 -1.10258 -0.895736 0.52583 -7.96494 -2.67025 45.5704 
7632 1 1 1.88328 10.1005 3.23228 1 0 0 0.0753312 0.404022 0.129291 26.8833 10.1005 3.23228 0.508506 0.00564303 0.816302 14.858 23.2273 6.07722 
46 1 1 4.392 9.12324 3.10174 0 0 0 0.17568 0.364929 0.12407 4.392 9.12324 3.10174 -1.76401 0.128466 -0.313708 9.95713 7.56143 26.1025 
711 1 1 4.73583 0.098774 2.37889 0 0 0 0.189433 0.00395096 0.0951557 4.73583 0.098774 2.37889 -0.235327 -0.614075 -0.864043 0.217614 -5.38255 10.3127 
3065 1 1 7.91727 6.25047 1.71403 0 0 1 0.316691 0.250019 0.0685614 7.91727 6.25047 26.714 1.28445 -0.0821008 0.289556 1.87168 22.3043 -1.38602 
3228 1 1 7.02807 0.644425 2.62473 0 0 1 0.281123 0.025777 0.104989 7.02807 0.644425 27.6247 -1.3931 -0.774524 1.04664 -11.4478 28.8725 7.05911 
1030 1 1 1.96774 8.3661 2.34292 0 0 0 0.0787094 0.334644 0.0937168 1.96774 8.3661 2.34292 0.210686 -0.179268 0.246917 -15.9056 0.107052 21.1911 
237 1 1 2.96525 3.95579 0.687648 0 0 0 0.11861 0.158232 0.0275059 2.96525 3.95579 0.687648 0.182298 -0.899549 -0.448635 -8.92236 -12.333 1.97457 
81 1 1 4.40937 2.66923 0.956002 0 0 0 0.176375 0.106769 0.0382401 4.40937 2.66923 0.956002 2.32831 3.07218 0.994581 0.737951 22.6824 -42.3872 
7411 1 1 8.64661 8.15162 0.391506 0 0 0 0.345864 0.326065 0.0156602 8.64661 8.15162 0.391506 -0.650931 -0.0631561 0.980219 33.4764 27.9302 56.5908 
648 1 1 10.2703 10.2485 4.96571 0 0 0 0.410811 0.409938 0.198628 10.2703 10.2485 4.96571 -0.44833 0.080375 -0.331452 -11.2093 11.1608 -0.44506 
10998 1 1 11.7059 4.71564 2.38498 0 1 0 0.468237 0.188626 0.0953993 11.7059 29.7156 2.38498 0.37383 -0.288874 0.488504 -28.5314 -5.88481 -19.6059 
3088 1 1 0.225048 5.49746 0.246241 0 0 1 0.00900191 0.219898 0.00984963 0.225048 5.49746 25.2462 -0.148324 -1.13033 -0.398303 16.3231 -31.3977 -3.45719 
3067 1 1 7.86196 8.68059 2.42608 0 0 1 0.314478 0.347224 0.0970434 7.86196 8.68059 27.4261 0.160849 0.704148 -1.93637 -28.3978 -54.1741 -0.801335 
10968 1 1 12.1475 2.56751 3.24188 0 1 0 0.485901 0.1027 0.129675 12.1475 27.5675 3.24188 -1.02115 0.830094 0.44934 1.18912 21.1595 1.17903 
239 1 1 7.85928 4.01232 4.94356 0 0 0 0.314371 0.160493 0.197742 7.85928 4.01232 4.94356 -0.0650239 -0.514583 -0.488177 9.09212 5.73861 -0.569359 
4540 1 1 11.8249 11.7469 5.85796 0 0 0 0.472995 0.469876 0.234318 11.8249 11.7469 5.85796 0.660041 -2.3144 -0.310191 -1.87833 -13.2107 16.3672 
8 1 1 -0.0189101 3.90295 0.636228 0 0 0 -0.000756403 0.156118 0.0254491 -0.0189101 3.90295 0.636228 -0.963975 -1.67908 0.0295887 5.07833 8.25508 -6.09264 
412 1 1 8.60971 12.1548 2.0891 0 0 0 0.344389 0.486191 0.083564 8.60971 12.1548 2.0891 -0.83823 -2.12223 0.92216 -40.1401 -0.461454 33.5806 
397 1 1 12.2456 12.2679 4.79552 0 0 0 0.489824 0.490717 0.191821 12.2456 12.2679 4.79552 -0.53614 -1.76717 -0.682691 17.5437 -42.885 -11.9457 
761 1 1 9.84543 5.85824 3.85856 0 0 0 0.393817 0.23433 0.154342 9.84543 5.85824 3.85856 1.59974 0.732647 -0.0772915 -7.50624 -0.580474 -8.3987 
3312 1 1 0.279129 9.30993 3.16947 0 0 1 0.0111652 0.372397 0.126779 0.279129 9.30993 28.1695 -0.12199 -0.715623 0.677328 -15.1258 1.7627 -16.3482 
113 1 1 3.20546 9.47418 2.57485 0 0 0 0.128218 0.378967 0.102994 3.20546 9.47418 2.57485 -0.030127 -0.164691 -0.815962 4.75188 -9.95428 -27.754 
6808 1 1 0.606237 1.02625 1.19589 1 0 0 0.0242495 0.0410499 0.0478357 25.6062 1.02625 1.19589 0.135617 0.19711 -1.26435 3.86344 36.9081 -4.28293 
7098 1 1 9.28023 4.39535 0.643394 0 0 0 0.371209 0.175814 0.0257358 9.28023 4.39535 0.643394 -1.48185 0.0189364 0.778045 -17.7004 -0.984154 15.6174 
9974 1 1 12.354 7.71434 3.3503 0 0 1 0.494161 0.308574 0.134012 12.354 7.71434 28.3503 -1.69502 -0.457381 0.475619 -9.03326 9.08149 8.14944 
3973 1 1 4.17102 3.27081 0.11509 0 1 0 0.166841 0.130833 0.0046036 4.17102 28.2708 0.11509 0.776911 0.3342 -1.66397 3.31585 4.24669 -6.70118 
4561 1 1 8.61682 9.80037 3.88563 0 0 0 0.344673 0.392015 0.155425 8.61682 9.80037 3.88563 0.54854 0.212323 -0.939374 9.49475 2.56457 17.2753 
652 1 1 9.3216 11.403 2.24998 0 0 0 0.372864 0.456118 0.0899992 9.3216 11.403 2.24998 1.24665 2.59625 0.101951 -22.4612 -5.44981 17.0678 
11265 1 1 1.95548 10.4574 2.14879 1 0 0 0.0782194 0.418294 0.0859517 26.9555 10.4574 2.14879 -1.90788 0.699276 1.47288 -1.75563 12.0589 -2.41834 
3620 1 1 1.85727 8.22145 5.36455 0 0 0 0.0742906 0.328858 0.214582 1.85727 8.22145 5.36455 -0.232979 1.31943 -0.301088 -25.8102 4.41056 -20.8181 
547 1 1 11.5303 3.31577 2.42428 0 0 0 0.461213 0.132631 0.0969712 11.5303 3.31577 2.42428 0.561508 0.805907 0.860681 2.53028 -2.83588 -1.86085 
336 1 1 11.8339 9.36913 2.61334 0 0 0 0.473355 0.374765 0.104534 11.8339 9.36913 2.61334 -1.80364 -0.0495426 1.55451 -13.1944 5.69924 28.554 
107 1 1 5.77009 4.63002 0.674561 0 0 0 0.230804 0.185201 0.0269825 5.77009 4.63002 0.674561 -0.200447 0.988784 0.400089 1.04061 -21.2256 32.5028 
7256 1 1 11.1312 1.05394 4.40657 0 0 0 0.445247 0.0421577 0.176263 11.1312 1.05394 4.40657 0.0922557 1.98899 -0.415535 -16.5172 35.051 -9.87496 
584 1 1 7.34484 7.48225 1.44516 0 0 0 0.293794 0.29929 0.0578065 7.34484 7.48225 1.44516 0.140032 1.385 -0.371259 -29.3509 -39.1377 -12.2265 
4273 1 1 5.36551 1.15236 2.11945 0 1 0 0.214621 0.0460943 0.0847779 5.36551 26.1524 2.11945 1.81287 0.44405 -2.87681 -17.7066 -9.87297 4.28378 
351 1 1 8.14463 9.0451 1.13199 0 0 0 0.325785 0.361804 0.0452797 8.14463 9.0451 1.13199 1.63277 -1.10919 2.2155 -11.8436 -3.10124 -4.05668 
470 1 1 10.1873 0.580405 2.38051 0 0 0 0.407491 0.0232162 0.0952205 10.1873 0.580405 2.38051 0.854055 0.330687 -0.45398 -8.11073 -4.91662 3.39262 
11063 1 1 4.75796 11.9042 1.81134 1 0 0 0.190318 0.476168 0.0724535 29.758 11.9042 1.81134 0.882895 -0.058002 -0.568563 -11.7175 3.82752 37.1168 
1467 1 1 10.7466 5.392 4.34251 0 0 0 0.429865 0.21568 0.1737 10.7466 5.392 4.34251 0.429476 0.640125 0.136858 10.4437 -18.8526 8.27551 
10820 1 1 8.1961 10.968 1.46699 0 0 0 0.327844 0.438718 0.0586796 8.1961 10.968 1.46699 1.9608 0.475136 -0.917006 -28.1081 12.0214 -7.21257 
1312 1 1 4.16736 6.31662 1.8102 0 0 0 0.166694 0.252665 0.0724079 4.16736 6.31662 1.8102 0.692914 -0.300195 -0.419332 -28.7059 27.9812 52.5593 
7324 1 1 12.0233 4.24714 1.47868 0 0 0 0.480931 0.169886 0.059147 12.0233 4.24714 1.47868 -1.59362 -1.09611 -1.46566 28.2633 -36.4822 2.4957 
882 1 1 12.5322 6.89618 5.2369 0 0 0 0.501287 0.275847 0.209476 12.5322 6.89618 5.2369 0.960093 -1.69756 -0.935395 -10.4065 -4.41206 -0.895723 
8293 1 1 2.59786 7.84595 1.69174 1 0 0 0.103915 0.313838 0.0676695 27.5979 7.84595 1.69174 0.393877 0.632137 -1.13979 -4.55433 3.69266 -18.0793 
369 1 1 4.35533 3.13155 1.81505 0 0 0 0.174213 0.125262 0.0726019 4.35533 3.13155 1.81505 -0.752048 1.0134 0.727768 4.94914 19.3064 33.6163 
10580 1 1 11.3475 10.6183 5.58792 0 0 0 0.453901 0.424732 0.223517 11.3475 10.6183 5.58792 0.339786 -0.745041 -0.384795 -75.6776 3.45928 -64.3053 
464 1 1 10.1536 6.01404 4.95995 0 0 0 0.406144 0.240562 0.198398 10.1536 6.01404 4.95995 -1.00622 -0.540352 0.446963 -13.8625 0.696162 -7.56372 
792 1 1 12.2425 4.57526 4.12231 0 0 0 0.489699 0.18301 0.164893 12.2425 4.57526 4.12231 0.0782491 0.723554 -0.31397 -4.09914 0.824466 -20.245 
4091 1 1 8.24314 10.2872 3.06149 0 0 0 0.329726 0.411488 0.12246 8.24314 10.2872 3.06149 0.642795 -0.541705 1.75763 -13.226 1.88127 -4.65785 
7273 1 1 0.442749 3.29366 1.72378 1 0 0 0.01771 0.131746 0.0689511 25.4427 3.29366 1.72378 1.15689 0.710389 0.388433 8.05136 -5.8431 5.30417 
750 1 1 7.21187 2.91919 3.94002 0 0 0 0.288475 0.116768 0.157601 7.21187 2.91919 3.94002 -0.258787 -0.566874 -0.278605 -22.1439 -5.73303 -30.9909 
160 1 1 0.10577 3.96349 4.89373 0 0 0 0.00423079 0.15854 0.195749 0.10577 3.96349 4.89373 0.279602 -0.119099 0.550339 -25.2965 14.4436 11.1968 
3288 1 1 4.4518 11.0313 0.226681 0 0 1 0.178072 0.441254 0.00906724 4.4518 11.0313 25.2267 0.880434 -0.0709017 -1.65833 2.11948 3.95623 0.197623 