ITEM: TIMESTEP
80000
ITEM: NUMBER OF ATOMS
13500
ITEM: BOX BOUNDS
0 25
0 25
0 25
ITEM: ATOMS id type mass x y z ix iy iz xs ys zs xu yu zu vx vy vz fx fy fz 
5936 1 1 2.87715 3.10988 1.82706 0 1 1 0.115086 0.124395 0.0730826 2.87715 28.1099 26.8271 0.636686 0.663941 -0.700857 2.73998 -0.0273366 -14.7159 
2679 1 1 6.76205 9.09242 0.228643 0 0 1 0.270482 0.363697 0.00914573 6.76205 9.09242 25.2286 0.203235 -0.573351 2.73745 -8.41022 19.7089 1.93296 
9877 1 1 7.04499 3.00749 4.57519 1 0 1 0.2818 0.1203 0.183008 32.045 3.00749 29.5752 -0.241326 -0.0369371 -0.583973 -0.674385 1.90333 1.90171 
11698 1 1 7.84103 5.13256 4.58791 1 1 1 0.313641 0.205303 0.183516 32.841 30.1326 29.5879 2.82141 0.467288 -0.391528 -16.7627 2.09349 2.89314 
7187 1 1 9.38502 6.27288 1.94756 0 0 0 0.375401 0.250915 0.0779024 9.38502 6.27288 1.94756 0.741008 -0.45054 0.239929 -0.0787359 -10.672 5.85553 
626 1 1 5.09836 11.1186 2.48355 0 0 0 0.203934 0.444745 0.099342 5.09836 11.1186 2.48355 1.01364 0.276833 -0.607893 -10.0829 7.43608 1.95215 
616 1 1 9.70727 7.13888 1.44683 0 0 0 0.388291 0.285555 0.057873 9.70727 7.13888 1.44683 -1.16321 -1.16724 -0.209345 -3.02465 7.38586 -4.64428 
10043 1 1 3.29789 2.70491 2.84667 1 0 1 0.131916 0.108197 0.113867 28.2979 2.70491 27.8467 1.23765 -1.19394 1.38968 23.3588 -9.8025 -51.9158 
7098 1 1 8.72244 9.57746 1.94774 0 0 0 0.348898 0.383098 0.0779095 8.72244 9.57746 1.94774 0.392385 -0.0260523 1.21043 2.65559 7.24933 0.778128 
4926 1 1 11.5758 1.30151 3.29329 0 1 0 0.463032 0.0520606 0.131731 11.5758 26.3015 3.29329 1.07905 0.288047 0.130595 -5.94165 4.07137 6.4548 
1878 1 1 4.15594 3.31485 5.66409 0 0 1 0.166238 0.132594 0.226563 4.15594 3.31485 30.6641 -1.03239 0.978083 -1.50541 -8.53813 14.8044 5.92106 
7696 1 1 12.0496 8.27356 3.26896 0 0 0 0.481985 0.330942 0.130758 12.0496 8.27356 3.26896 -0.49517 0.371698 1.05115 5.38294 -5.70303 2.71985 
533 1 1 6.83721 3.72459 3.60053 0 0 0 0.273488 0.148984 0.144021 6.83721 3.72459 3.60053 -0.698337 -0.31298 -0.251212 -10.4606 31.3564 -2.94409 
10698 1 1 12.259 5.88223 4.34317 0 0 0 0.49036 0.235289 0.173727 12.259 5.88223 4.34317 0.338378 -0.303823 -1.5391 -18.881 11.1393 -13.0202 
44 1 1 3.80459 2.60449 0.250211 0 0 0 0.152184 0.104179 0.0100084 3.80459 2.60449 0.250211 -0.487405 -0.453473 2.01891 1.64146 -4.87807 5.92244 
9849 1 1 2.14333 5.75266 2.1282 1 0 1 0.0857333 0.230106 0.085128 27.1433 5.75266 27.1282 0.0903921 -0.737444 0.185938 -13.5165 -24.9164 28.3766 
10993 1 1 6.26569 3.5099 0.98775 1 1 0 0.250627 0.140396 0.03951 31.2657 28.5099 0.98775 -1.34622 -2.20751 -0.310152 -8.71646 13.3253 8.6778 
3236 1 1 11.1846 1.34917 2.22745 0 0 1 0.447386 0.0539669 0.0890979 11.1846 1.34917 27.2274 -0.203515 -1.09549 1.84323 18.1919 0.467457 -3.42643 
2325 1 1 2.91156 6.78784 1.16298 0 0 1 0.116462 0.271514 0.0465192 2.91156 6.78784 26.163 -0.0204741 -0.150977 -0.172989 -15.2895 13.035 -24.316 
5424 1 1 10.9998 12.3277 5.92569 0 0 0 0.439993 0.493107 0.237028 10.9998 12.3277 5.92569 -0.716978 1.55652 -0.280175 18.2934 -7.28994 14.9227 
7915 1 1 7.92056 3.71927 0.65116 0 0 0 0.316823 0.148771 0.0260464 7.92056 3.71927 0.65116 -1.04531 -0.202372 -1.45747 43.1228 -7.89693 4.11952 
5161 1 1 8.4573 9.33572 3.05143 0 1 0 0.338292 0.373429 0.122057 8.4573 34.3357 3.05143 -0.273403 -1.64298 -0.441975 13.0495 -6.4672 -31.8898 
2411 1 1 4.41823 8.79869 3.675 0 0 1 0.176729 0.351948 0.147 4.41823 8.79869 28.675 -0.882926 -0.0518519 0.318729 1.07661 -12.3583 0.467123 
3985 1 1 1.90552 12.431 2.454 0 0 0 0.0762208 0.497239 0.09816 1.90552 12.431 2.454 1.08006 -1.23116 0.0368044 -5.13673 4.3462 -2.59806 
341 1 1 1.53575 5.3688 3.43603 0 0 0 0.06143 0.214752 0.137441 1.53575 5.3688 3.43603 0.198092 -0.926905 2.19167 31.7123 59.7348 -38.1863 
12692 1 1 3.00203 4.62687 1.30693 1 1 1 0.120081 0.185075 0.0522771 28.002 29.6269 26.3069 0.707921 0.409422 0.560027 11.4255 -37.1139 -17.5189 
3805 1 1 6.29794 0.783209 4.54692 0 1 0 0.251918 0.0313283 0.181877 6.29794 25.7832 4.54692 -1.47846 0.292177 -0.0448801 -0.0623748 3.41839 -7.26097 
3935 1 1 9.21624 1.41208 1.72866 0 1 0 0.36865 0.056483 0.0691463 9.21624 26.4121 1.72866 -0.502243 -0.51558 1.57394 -4.27221 -9.63661 -11.1717 
10815 1 1 2.44193 2.09171 2.178 1 0 0 0.0976771 0.0836684 0.0871199 27.4419 2.09171 2.178 -0.134092 1.73873 -0.726053 -10.0885 11.0106 17.5724 
975 1 1 3.57813 1.519 5.85354 0 0 0 0.143125 0.0607601 0.234142 3.57813 1.519 5.85354 0.604802 0.83702 -0.740943 -24.0368 -19.6605 6.76405 
13049 1 1 0.584382 10.6365 3.14252 1 1 1 0.0233753 0.425458 0.125701 25.5844 35.6365 28.1425 -0.60897 0.619951 0.134617 -1.47377 -3.01778 5.16242 
3358 1 1 3.27351 10.6802 1.7548 0 0 1 0.13094 0.427209 0.0701921 3.27351 10.6802 26.7548 0.494307 -0.0195926 -0.891413 -10.4454 16.4247 -1.2662 
1445 1 1 2.90376 0.163987 2.32027 0 0 0 0.116151 0.00655947 0.0928108 2.90376 0.163987 2.32027 0.706607 -0.466681 -0.259833 2.15747 -39.3997 23.3645 
10181 1 1 9.79237 12.0377 3.81416 0 0 0 0.391695 0.481509 0.152567 9.79237 12.0377 3.81416 0.211765 0.208941 0.969335 -3.78962 5.49744 -27.6896 
13322 1 1 9.67569 4.19539 0.310496 0 0 1 0.387028 0.167816 0.0124199 9.67569 4.19539 25.3105 -1.74327 0.395929 0.0927303 -2.80436 -5.75064 -8.63817 
6992 1 1 11.6023 7.19493 3.82458 0 0 0 0.464094 0.287797 0.152983 11.6023 7.19493 3.82458 -0.073153 0.331063 -0.0262778 5.96636 0.991302 -18.2782 
839 1 1 6.07636 4.97878 2.56885 0 0 0 0.243054 0.199151 0.102754 6.07636 4.97878 2.56885 0.192462 -0.511005 1.19118 -12.103 5.5106 -4.76355 
3193 1 1 5.55198 2.31337 3.07383 0 0 1 0.222079 0.0925348 0.122953 5.55198 2.31337 28.0738 0.452159 -1.29872 0.616655 14.0847 3.62779 -10.2259 
1834 1 1 1.7998 9.99092 1.03235 0 0 1 0.0719921 0.399637 0.0412941 1.7998 9.99092 26.0324 -0.478791 -0.92923 -0.507068 -9.00649 -7.69601 -48.3337 
6561 1 1 6.35377 2.2246 1.10446 0 0 1 0.254151 0.0889841 0.0441782 6.35377 2.2246 26.1045 -1.26601 0.116086 0.50918 15.6573 5.71002 -1.191 
9482 1 1 9.18925 0.528506 1.03438 0 0 1 0.36757 0.0211402 0.0413753 9.18925 0.528506 26.0344 -0.0754154 0.147517 0.848043 -3.77434 11.3083 13.2527 
6928 1 1 6.32032 8.20513 1.4777 0 0 0 0.252813 0.328205 0.0591079 6.32032 8.20513 1.4777 0.77236 2.50439 -0.124992 6.95472 16.9905 -9.30555 
6194 1 1 8.54833 3.28127 3.79277 0 0 1 0.341933 0.131251 0.151711 8.54833 3.28127 28.7928 -0.618349 0.599775 -0.993414 -6.16896 4.78587 18.861 
10145 1 1 12.5106 9.84588 1.57489 0 0 0 0.500423 0.393835 0.0629957 12.5106 9.84588 1.57489 1.63312 0.660814 -1.32659 -12.0071 5.03974 0.105891 
4025 1 1 11.2363 5.55899 0.418439 0 1 0 0.449452 0.22236 0.0167376 11.2363 30.559 0.418439 -0.173643 -0.528974 -0.491385 -10.3208 13.408 -7.92145 
6927 1 1 11.2336 7.43626 2.69375 0 0 0 0.449346 0.29745 0.10775 11.2336 7.43626 2.69375 -0.385776 -0.254583 -0.698346 -7.78257 2.33021 -0.206954 
748 1 1 11.5729 9.99458 4.11271 0 0 0 0.462918 0.399783 0.164508 11.5729 9.99458 4.11271 -0.0208086 -1.41436 -1.64592 -43.2605 17.6445 -16.4244 
4218 1 1 2.24083 11.7934 5.78132 0 1 0 0.0896331 0.471736 0.231253 2.24083 36.7934 5.78132 -0.00135324 -0.712251 0.833185 3.33422 7.36118 16.6793 
3350 1 1 8.22107 1.64205 2.19144 0 1 1 0.328843 0.065682 0.0876576 8.22107 26.6421 27.1914 0.474709 0.444604 -0.221622 -16.1625 30.6218 -19.054 
2658 1 1 10.001 8.00629 0.749355 0 0 1 0.400039 0.320252 0.0299742 10.001 8.00629 25.7494 0.222667 0.266108 -0.813804 -2.30372 22.4553 27.984 
320 1 1 9.1359 11.9834 2.08806 0 0 0 0.365436 0.479338 0.0835226 9.1359 11.9834 2.08806 1.36462 0.448381 0.697216 -33.9461 24.1216 -7.57775 
6780 1 1 2.35262 4.61695 5.20652 1 0 0 0.0941048 0.184678 0.208261 27.3526 4.61695 5.20652 0.648757 -0.861734 -0.855633 -6.56214 -5.00986 -13.4532 
7757 1 1 12.1813 1.99133 4.73908 0 0 0 0.487254 0.0796534 0.189563 12.1813 1.99133 4.73908 -0.264279 2.44551 -0.0393329 -7.969 24.7931 18.0041 
7951 1 1 9.56165 1.12536 0.23691 0 0 0 0.382466 0.0450146 0.00947641 9.56165 1.12536 0.23691 0.146486 0.556163 0.0167492 -6.54057 -7.70828 -19.1255 
7313 1 1 2.18588 9.09841 1.68452 1 0 0 0.087435 0.363936 0.0673807 27.1859 9.09841 1.68452 -1.6612 -0.310831 0.385002 -1.3197 6.49241 -5.21399 
4019 1 1 6.37796 11.7529 5.56227 0 1 0 0.255118 0.470118 0.222491 6.37796 36.7529 5.56227 0.16292 0.257075 0.275304 -17.8416 -5.5574 6.02968 
3972 1 1 3.40901 7.42815 1.87647 0 0 0 0.13636 0.297126 0.0750588 3.40901 7.42815 1.87647 -1.36636 0.399555 0.229263 -11.5762 -16.9281 -32.5646 
9400 1 1 12.2454 9.34886 3.83877 0 0 1 0.489817 0.373955 0.153551 12.2454 9.34886 28.8388 0.0624911 -0.660744 -0.784815 13.087 -45.1195 -35.2979 
4270 1 1 3.2827 -0.031278 3.35927 0 1 0 0.131308 -0.00125112 0.134371 3.2827 24.9687 3.35927 -1.93117 0.72102 0.123136 -0.81162 47.3542 28.7186 
1282 1 1 5.33407 5.56681 0.685638 0 0 0 0.213363 0.222673 0.0274255 5.33407 5.56681 0.685638 0.412193 -0.466406 -0.323571 -6.04614 -12.5464 -19.7786 
5099 1 1 3.63252 12.2365 2.37664 0 0 0 0.145301 0.48946 0.0950655 3.63252 12.2365 2.37664 0.124261 0.802665 2.76878 -40.4129 43.3067 24.1343 
3691 1 1 3.70285 10.3045 2.70294 0 0 0 0.148114 0.41218 0.108118 3.70285 10.3045 2.70294 0.0890313 0.581583 0.231688 7.26378 -7.91816 -12.6866 
162 1 1 0.212962 0.12609 3.69049 0 0 0 0.00851847 0.00504361 0.147619 0.212962 0.12609 3.69049 1.58157 0.798182 -0.209289 -4.25561 -8.15622 -31.6974 
9777 1 1 4.0378 11.3807 2.40079 0 0 1 0.161512 0.455226 0.0960318 4.0378 11.3807 27.4008 -0.827812 2.07142 0.866148 15.0105 -62.8018 -14.9676 
6947 1 1 0.960324 5.90643 1.40455 1 0 0 0.038413 0.236257 0.0561819 25.9603 5.90643 1.40455 -2.17228 -1.27534 1.01014 6.29333 -13.4315 3.39837 
7480 1 1 1.74578 2.30775 0.190902 1 0 0 0.0698311 0.0923102 0.0076361 26.7458 2.30775 0.190902 0.801955 -0.712883 0.203338 9.74219 -1.88438 25.2583 
2909 1 1 9.15605 10.8846 5.45919 0 0 1 0.366242 0.435386 0.218368 9.15605 10.8846 30.4592 -1.03716 0.95319 0.56026 -5.43166 6.52241 -6.46825 
9420 1 1 5.78734 6.3846 1.12093 1 0 1 0.231494 0.255384 0.0448374 30.7873 6.3846 26.1209 1.20011 2.20955 -1.13838 12.2786 6.9268 -0.328804 
1372 1 1 10.1202 3.26698 1.83711 0 0 0 0.404807 0.130679 0.0734845 10.1202 3.26698 1.83711 -0.0592729 -0.932788 0.73427 8.10849 8.36211 -8.41086 
9878 1 1 3.45096 7.70098 0.558562 1 0 1 0.138038 0.308039 0.0223425 28.451 7.70098 25.5586 0.371101 1.29811 -1.93247 1.30383 5.27051 7.67678 
8959 1 1 9.92273 11.0515 3.85469 0 0 1 0.396909 0.442061 0.154188 9.92273 11.0515 28.8547 -0.296985 -0.997102 -0.976303 -2.37297 -22.6191 3.16872 
4668 1 1 3.62381 6.30187 1.62733 0 1 0 0.144952 0.252075 0.0650931 3.62381 31.3019 1.62733 0.0654904 0.864281 -1.33411 27.2762 -8.74746 13.7203 
1021 1 1 4.26839 3.22889 2.57926 0 0 0 0.170736 0.129156 0.10317 4.26839 3.22889 2.57926 0.216921 -2.74604 -0.0290001 -38.4006 -39.0186 -27.6231 
11473 1 1 1.52426 2.05965 1.25115 1 1 0 0.0609703 0.082386 0.050046 26.5243 27.0596 1.25115 0.962535 -0.569869 -0.136498 14.8131 -45.1344 -20.4794 
7281 1 1 12.3877 8.92287 4.91561 0 0 0 0.495509 0.356915 0.196624 12.3877 8.92287 4.91561 -0.0337934 0.179886 -0.867967 -5.32894 -5.20149 0.155302 
6854 1 1 3.99865 0.112965 2.49618 1 0 0 0.159946 0.00451862 0.0998472 28.9987 0.112965 2.49618 -0.325975 -0.426109 0.0281894 -14.5959 -8.34751 -15.0005 
191 1 1 3.72686 8.07148 2.5659 0 0 0 0.149074 0.322859 0.102636 3.72686 8.07148 2.5659 -0.286551 -1.07279 -2.24937 27.8551 7.67707 36.503 
6879 1 1 11.5367 3.87447 3.88615 0 0 0 0.461468 0.154979 0.155446 11.5367 3.87447 3.88615 -0.96477 0.0719868 -0.415147 0.919242 -0.236693 -6.61587 
13303 1 1 7.75277 10.4298 2.19861 0 0 1 0.310111 0.417191 0.0879443 7.75277 10.4298 27.1986 -1.31246 0.0459742 2.71926 -0.906758 6.27645 -33.6437 
10250 1 1 1.84799 11.4693 0.0565466 1 0 0 0.0739197 0.458773 0.00226187 26.848 11.4693 0.0565466 -0.101271 0.389142 -1.08702 -4.70712 11.1238 0.997213 
9731 1 1 10.6075 8.84816 1.40654 0 0 1 0.4243 0.353926 0.0562615 10.6075 8.84816 26.4065 0.393098 -1.34878 -1.04133 5.76133 -23.6448 -37.321 
516 1 1 6.2393 0.300402 0.690799 0 0 0 0.249572 0.0120161 0.027632 6.2393 0.300402 0.690799 0.471463 0.337968 -0.160852 8.96991 -5.3532 -0.90522 
9885 1 1 6.45798 6.17413 0.199583 1 0 1 0.258319 0.246965 0.00798334 31.458 6.17413 25.1996 -1.69372 0.671312 0.920738 -9.37907 -2.68762 8.73413 
2318 1 1 0.487721 8.19815 0.266489 0 0 1 0.0195089 0.327926 0.0106595 0.487721 8.19815 25.2665 0.557013 -0.471962 -0.716857 14.7805 -25.3009 -28.4708 
6598 1 1 7.04961 7.42901 2.60254 0 1 1 0.281984 0.29716 0.104102 7.04961 32.429 27.6025 0.732078 0.936913 -0.912771 -1.21127 18.1994 -2.49941 
890 1 1 5.83331 9.86297 3.31836 0 0 0 0.233332 0.394519 0.132734 5.83331 9.86297 3.31836 -0.166443 -0.213664 1.74768 50.1084 17.3884 -33.3634 
1069 1 1 6.95584 10.1177 3.93021 0 0 0 0.278234 0.404709 0.157208 6.95584 10.1177 3.93021 0.528624 1.7429 0.889429 1.96528 -3.16231 4.12369 
3377 1 1 2.43198 5.98776 0.340197 0 0 0 0.0972793 0.23951 0.0136079 2.43198 5.98776 0.340197 0.180654 -1.74 -0.318629 24.3912 1.8542 -11.1086 
7589 1 1 -0.00859187 9.51612 4.62251 1 0 0 -0.000343675 0.380645 0.1849 24.9914 9.51612 4.62251 -1.80272 -1.78473 -0.0234094 -10.7443 -22.9768 21.9694 
10567 1 1 1.72837 5.22242 0.810555 1 1 0 0.0691348 0.208897 0.0324222 26.7284 30.2224 0.810555 -0.479247 -0.364336 1.19824 -0.0855758 -8.94418 14.712 
857 1 1 1.27939 8.82191 1.04521 0 0 0 0.0511758 0.352877 0.0418086 1.27939 8.82191 1.04521 0.354429 -1.06029 -0.471942 -2.32186 3.80692 1.01421 
3224 1 1 8.48729 7.96441 1.16749 0 0 1 0.339492 0.318576 0.0466995 8.48729 7.96441 26.1675 -1.3469 -1.4951 -1.23748 3.59804 -7.10838 7.783 
5650 1 1 8.49657 12.4125 0.442673 0 0 1 0.339863 0.496501 0.0177069 8.49657 12.4125 25.4427 -0.109734 -0.652419 1.20412 4.25797 14.6502 -6.99386 
2988 1 1 6.52859 1.75041 2.9471 0 1 1 0.261144 0.0700166 0.117884 6.52859 26.7504 27.9471 -0.312099 -0.398133 0.701789 -13.607 7.48518 8.307 
7872 1 1 10.2277 7.34863 3.94796 1 0 0 0.409107 0.293945 0.157918 35.2277 7.34863 3.94796 -0.0319327 -1.48787 0.488492 -1.64826 -3.47664 -1.82421 
4623 1 1 10.2604 6.6659 5.92137 0 1 0 0.410418 0.266636 0.236855 10.2604 31.6659 5.92137 0.4052 -0.946601 -1.37793 -5.75082 0.463993 6.90699 
10519 1 1 10.293 10.2143 -0.00845185 0 0 0 0.411721 0.40857 -0.000338074 10.293 10.2143 -0.00845185 1.34606 -0.169848 -0.138519 6.33161 2.93328 -0.450802 
3685 1 1 1.41034 11.6491 4.94546 0 0 0 0.0564134 0.465963 0.197818 1.41034 11.6491 4.94546 -0.802065 0.900579 1.38974 0.327545 -2.79515 8.65502 
1334 1 1 6.65616 4.09336 2.49333 0 0 0 0.266246 0.163734 0.0997333 6.65616 4.09336 2.49333 -1.32636 1.19751 -0.88158 -17.143 -7.21806 -11.0747 
8753 1 1 9.62148 11.0097 2.14425 0 0 0 0.384859 0.440387 0.0857699 9.62148 11.0097 2.14425 -0.294623 -0.776565 1.61939 -0.582838 -1.53563 -2.55752 
10115 1 1 4.50211 11.8175 3.22994 0 0 1 0.180085 0.472698 0.129198 4.50211 11.8175 28.2299 -0.19966 1.54385 -0.561242 -7.58013 33.1788 -9.86238 
3299 1 1 10.0894 7.29496 2.63738 0 0 1 0.403575 0.291799 0.105495 10.0894 7.29496 27.6374 -0.795995 -0.75392 0.0635883 41.6661 -14.3049 52.4237 
7184 1 1 10.4409 5.73911 3.77602 1 0 0 0.417638 0.229564 0.151041 35.4409 5.73911 3.77602 1.4109 -1.80054 -0.248024 -9.23812 -7.61296 -6.63918 
7060 1 1 1.42094 8.16594 3.13118 1 0 0 0.0568375 0.326638 0.125247 26.4209 8.16594 3.13118 -0.215494 0.465973 1.41979 -7.03068 -4.865 0.826895 
10771 1 1 10.896 10.243 0.985155 0 1 0 0.43584 0.409719 0.0394062 10.896 35.243 0.985155 -0.418983 1.00825 1.28646 4.76072 -14.6604 -24.6121 
13500 1 1 5.94997 1.57643 0.341143 1 1 1 0.237999 0.0630572 0.0136457 30.95 26.5764 25.3411 0.220938 -0.227994 -0.405945 -7.16144 24.6905 15.2632 
4035 1 1 11.4739 9.12757 3.03678 0 1 0 0.458956 0.365103 0.121471 11.4739 34.1276 3.03678 -0.599214 0.528617 -0.0297828 10.4889 2.15153 7.01185 
3271 1 1 4.25392 7.1438 1.22069 0 0 1 0.170157 0.285752 0.0488274 4.25392 7.1438 26.2207 0.175539 1.48982 -0.252312 1.38892 -4.96147 -1.26203 
1799 1 1 12.2637 7.47407 2.50218 0 0 0 0.490547 0.298963 0.100087 12.2637 7.47407 2.50218 0.510053 -1.83174 1.76239 13.1235 -10.7631 1.87572 
387 1 1 0.260489 10.2614 4.0362 0 0 0 0.0104195 0.410456 0.161448 0.260489 10.2614 4.0362 0.131709 1.56999 0.128979 20.6018 -7.97468 -16.0513 
636 1 1 1.75204 11.4793 1.98361 0 0 0 0.0700817 0.459171 0.0793443 1.75204 11.4793 1.98361 1.12954 0.432669 0.254039 -5.06317 -18.0358 -2.27165 
6162 1 1 9.25508 7.37785 0.458677 0 0 1 0.370203 0.295114 0.0183471 9.25508 7.37785 25.4587 -2.36413 -1.61679 -0.76966 -5.25943 -22.5269 13.956 
2843 1 1 0.666921 9.81151 0.791552 0 0 1 0.0266768 0.39246 0.0316621 0.666921 9.81151 25.7916 -1.61295 -0.943623 0.132084 3.83479 -4.78688 14.389 
11082 1 1 11.9118 6.33797 5.37923 0 0 0 0.47647 0.253519 0.215169 11.9118 6.33797 5.37923 -1.03328 -0.640708 1.75062 -42.8234 1.73266 -4.40432 
10533 1 1 11.9987 12.3156 1.05817 0 0 0 0.479948 0.492625 0.0423266 11.9987 12.3156 1.05817 -0.0427241 -1.10772 -1.4216 -20.3784 -23.7715 -36.546 
6603 1 1 4.69552 12.5688 4.13983 0 0 1 0.187821 0.502752 0.165593 4.69552 12.5688 29.1398 1.00603 0.110173 0.434595 -12.6196 -16.606 -7.88255 
7025 1 1 3.44001 2.24556 1.77435 1 0 0 0.1376 0.0898223 0.0709741 28.44 2.24556 1.77435 -1.15453 -0.922287 1.87682 13.9597 -8.54146 0.879527 
9062 1 1 8.93702 6.31134 0.780255 0 0 1 0.357481 0.252454 0.0312102 8.93702 6.31134 25.7803 0.715795 -0.214765 -0.238398 -9.26579 -4.25921 -22.5484 
2893 1 1 4.58926 7.6848 3.23349 0 0 1 0.18357 0.307392 0.12934 4.58926 7.6848 28.2335 0.512879 -1.32399 -0.124028 -3.79047 13.9838 -7.80033 
7626 1 1 10.6357 2.70499 3.82676 0 0 0 0.425427 0.1082 0.15307 10.6357 2.70499 3.82676 -0.702481 0.308383 0.897317 -4.14451 11.5877 -5.84723 
2481 1 1 5.89039 7.83078 2.34038 0 0 1 0.235616 0.313231 0.0936152 5.89039 7.83078 27.3404 0.0117748 0.636706 -0.14617 39.9579 -11.8963 5.04468 
2629 1 1 6.09351 4.50612 0.437895 0 0 1 0.24374 0.180245 0.0175158 6.09351 4.50612 25.4379 1.37543 -0.771134 0.0936189 20.2497 4.72451 -15.6299 
6 1 1 10.309 4.50867 2.47973 0 0 0 0.412359 0.180347 0.0991893 10.309 4.50867 2.47973 -0.495196 0.00982745 2.50065 34.6233 -0.310782 -24.1423 
755 1 1 1.12005 3.69301 0.737261 0 0 0 0.0448019 0.14772 0.0294904 1.12005 3.69301 0.737261 0.140576 -0.418692 -1.58884 -6.02808 -11.0654 -19.1164 
7549 1 1 10.8144 4.76957 3.51178 0 0 0 0.432576 0.190783 0.140471 10.8144 4.76957 3.51178 -2.34004 0.937953 -0.332464 -8.13952 -2.77551 -10.6857 
2412 1 1 1.05533 7.16659 4.04895 0 0 1 0.0422134 0.286664 0.161958 1.05533 7.16659 29.0489 -1.05162 -0.947939 0.603383 -12.194 -16.8792 -5.22902 
7319 1 1 2.62864 6.00151 3.33265 1 0 0 0.105146 0.24006 0.133306 27.6286 6.00151 3.33265 -0.0721183 -0.409744 -0.805181 -4.3679 6.10688 0.0422151 
4022 1 1 4.26343 7.17783 2.33849 0 1 0 0.170537 0.287113 0.0935394 4.26343 32.1778 2.33849 -0.169057 -0.694457 1.80413 11.7105 -21.3566 9.53646 
8411 1 1 1.27768 8.81494 2.31489 1 0 0 0.0511071 0.352598 0.0925955 26.2777 8.81494 2.31489 -0.204506 0.866702 1.57339 34.5945 1.99566 2.30001 
4657 1 1 8.15495 0.174422 3.2797 0 1 0 0.326198 0.00697689 0.131188 8.15495 25.1744 3.2797 0.598043 0.405854 0.972811 -3.53162 -23.2823 1.01009 
9283 1 1 6.17827 4.619 1.56768 1 0 1 0.247131 0.18476 0.0627073 31.1783 4.619 26.5677 -1.5555 0.0953619 0.954505 14.7806 8.39586 -3.51329 
7450 1 1 4.13495 5.46726 5.4698 1 0 0 0.165398 0.21869 0.218792 29.1349 5.46726 5.4698 0.0830343 -1.45998 1.13845 8.48857 -9.80444 8.3193 
894 1 1 10.9416 12.4365 0.105348 0 0 0 0.437662 0.497459 0.00421392 10.9416 12.4365 0.105348 -0.0575824 0.752327 -1.14413 -18.5043 -34.1403 -7.20749 
7806 1 1 9.06716 10.2727 3.72089 0 0 0 0.362687 0.410909 0.148836 9.06716 10.2727 3.72089 0.638287 -0.408019 1.71999 -3.33307 11.5626 -5.82625 
1349 1 1 9.08938 3.57249 1.95327 0 0 0 0.363575 0.1429 0.0781309 9.08938 3.57249 1.95327 -0.130781 -1.24278 -0.525346 9.93083 -4.28926 3.17171 
6523 1 1 10.6253 6.82604 1.95745 0 1 1 0.425013 0.273042 0.0782979 10.6253 31.826 26.9574 0.367151 0.0650772 -0.888391 13.2932 -15.8697 -3.83792 
8913 1 1 0.0582612 6.03492 0.927388 1 0 1 0.00233045 0.241397 0.0370955 25.0583 6.03492 25.9274 -0.327675 0.711951 2.36337 4.60423 8.62217 -13.9944 
4767 1 1 1.53566 2.90659 4.92521 1 0 0 0.0614265 0.116264 0.197009 26.5357 2.90659 4.92521 -0.174154 -0.124398 -1.8305 -42.9989 8.71725 68.4888 
5726 1 1 1.87708 0.433324 5.06697 0 1 0 0.0750832 0.017333 0.202679 1.87708 25.4333 5.06697 -2.72646 1.52781 0.871733 -17.1604 5.25093 -6.44953 
886 1 1 7.99859 3.68947 1.91371 0 0 0 0.319943 0.147579 0.0765484 7.99859 3.68947 1.91371 -0.213937 -0.405129 -0.929075 15.2583 -6.43786 -11.3152 
4376 1 1 2.34625 8.18182 0.386221 0 0 0 0.0938502 0.327273 0.0154488 2.34625 8.18182 0.386221 0.211974 -0.993728 0.358134 5.51774 -1.1896 -0.0847764 
4545 1 1 9.39427 2.7059 5.4104 0 0 0 0.375771 0.108236 0.216416 9.39427 2.7059 5.4104 0.497383 -0.475083 1.15526 24.3638 -4.3395 23.2399 
12982 1 1 11.5953 0.802698 4.52196 0 1 1 0.46381 0.0321079 0.180878 11.5953 25.8027 29.522 0.0683285 -1.25999 0.998754 -19.8245 26.0263 -2.5274 
3890 1 1 7.74174 11.1411 3.89386 0 0 0 0.30967 0.445645 0.155754 7.74174 11.1411 3.89386 1.96522 0.819085 -0.27087 2.51539 -13.1379 18.5688 
9798 1 1 11.8627 2.12545 2.5566 0 0 1 0.474507 0.0850181 0.102264 11.8627 2.12545 27.5566 0.239949 -0.848995 -1.54563 -11.1914 5.94475 6.0899 
2272 1 1 11.6566 0.340987 2.42134 0 0 1 0.466264 0.0136395 0.0968536 11.6566 0.340987 27.4213 -0.129287 1.212 -0.0132627 1.5336 0.771882 1.89025 
2942 1 1 11.9125 2.05253 5.7862 0 0 1 0.476502 0.0821013 0.231448 11.9125 2.05253 30.7862 -0.403521 -1.54288 -0.0982778 -15.2008 12.3485 11.3873 
3188 1 1 7.10483 10.7602 0.531659 0 0 1 0.284193 0.43041 0.0212664 7.10483 10.7602 25.5317 -0.0898262 -0.174975 -0.373469 -9.29572 15.0546 13.0415 
10063 1 1 0.311649 7.38626 5.09701 1 0 1 0.012466 0.29545 0.20388 25.3116 7.38626 30.097 -1.39878 0.929722 -0.322805 -2.09033 10.6298 4.07669 
5810 1 1 9.58137 3.1315 3.76291 0 1 1 0.383255 0.12526 0.150517 9.58137 28.1315 28.7629 -0.816293 0.482051 -0.000152797 11.489 4.28574 1.55899 
8623 1 1 2.16762 9.46253 0.0407158 1 0 1 0.0867049 0.378501 0.00162863 27.1676 9.46253 25.0407 -0.654254 -0.555572 0.445658 -10.459 -5.13177 8.6383 
3872 1 1 3.71965 11.58 1.28978 0 0 0 0.148786 0.4632 0.0515913 3.71965 11.58 1.28978 0.40907 0.367197 -0.986084 7.20184 -11.0425 6.83067 
3191 1 1 2.52264 6.00109 5.0251 0 0 1 0.100906 0.240043 0.201004 2.52264 6.00109 30.0251 0.559401 0.24927 0.130374 -4.22538 -1.19776 -2.31768 
3768 1 1 3.81306 3.29758 1.32694 0 1 0 0.152523 0.131903 0.0530775 3.81306 28.2976 1.32694 1.1915 -0.0650311 -1.85717 -16.7022 -34.0565 -3.48631 
885 1 1 5.67909 7.39597 1.35728 0 0 0 0.227164 0.295839 0.0542913 5.67909 7.39597 1.35728 -0.421651 -1.66729 0.368965 -14.4517 -0.634606 -4.18476 
8336 1 1 11.517 5.95211 3.58868 0 0 0 0.460681 0.238085 0.143547 11.517 5.95211 3.58868 -0.317553 0.579047 0.261432 0.535356 0.715537 -7.15179 
1965 1 1 11.8073 10.3408 3.11837 0 0 1 0.472292 0.41363 0.124735 11.8073 10.3408 28.1184 -1.03553 -0.435742 -1.45487 10.2281 -10.5422 20.9572 
3753 1 1 2.41684 8.61709 4.53819 0 0 0 0.0966734 0.344684 0.181528 2.41684 8.61709 4.53819 1.04737 0.271899 -0.137104 23.692 24.8297 -67.0052 
8171 1 1 9.59851 1.2278 4.08815 0 0 0 0.38394 0.049112 0.163526 9.59851 1.2278 4.08815 -0.2846 0.0946317 -1.20485 6.96642 1.40165 -5.9359 
2029 1 1 5.47942 5.56032 1.71219 0 0 1 0.219177 0.222413 0.0684874 5.47942 5.56032 26.7122 1.03078 0.230614 0.676402 20.1639 -4.6208 17.3767 
11154 1 1 12.1403 5.20421 5.08334 0 0 0 0.485613 0.208168 0.203334 12.1403 5.20421 5.08334 -0.405406 -0.0679936 0.135423 7.87503 19.0105 10.6843 
2387 1 1 11.5163 2.58 1.311 0 0 1 0.460651 0.1032 0.05244 11.5163 2.58 26.311 -1.67847 -0.585905 0.303639 14.0953 -18.208 10.8864 
3830 1 1 2.89075 10.0807 0.910467 0 0 0 0.11563 0.403229 0.0364187 2.89075 10.0807 0.910467 -0.786737 -0.651304 0.824342 -8.27653 0.728168 40.2242 
6808 1 1 8.56633 0.75669 2.46041 1 0 0 0.342653 0.0302676 0.0984163 33.5663 0.75669 2.46041 -0.297468 0.366348 -0.105267 -13.8488 3.47731 16.9108 
3668 1 1 8.57266 11.1539 2.01447 0 0 0 0.342906 0.446156 0.0805789 8.57266 11.1539 2.01447 0.22683 -0.123495 0.341087 1.98221 -17.8552 -14.6022 
6524 1 1 6.94509 6.54195 1.10006 0 1 1 0.277804 0.261678 0.0440025 6.94509 31.5419 26.1001 -0.85871 0.391392 -1.18513 -2.20965 4.74519 -7.05985 
6716 1 1 10.2613 3.22051 4.96983 0 1 1 0.410451 0.12882 0.198793 10.2613 28.2205 29.9698 0.0552943 -0.587594 -0.8103 0.833537 2.7855 -0.213309 
2349 1 1 6.07295 6.61376 3.67615 0 0 1 0.242918 0.264551 0.147046 6.07295 6.61376 28.6762 0.155725 -0.0622012 -0.49879 4.91735 -24.6418 -28.0523 
588 1 1 12.1992 11.8166 2.14809 0 0 0 0.487967 0.472666 0.0859237 12.1992 11.8166 2.14809 0.788877 -0.662409 0.090491 8.66132 -7.80518 -11.7775 
322 1 1 1.96221 6.16227 1.20884 0 0 0 0.0784886 0.246491 0.0483536 1.96221 6.16227 1.20884 0.716861 0.062 1.43732 -6.85195 15.3417 -2.1517 
4095 1 1 7.18274 5.69165 3.79426 0 0 0 0.287309 0.227666 0.15177 7.18274 5.69165 3.79426 -0.541933 1.14785 1.25512 -4.1483 -16.1164 6.84239 
5409 1 1 2.45142 9.7142 2.62509 0 0 1 0.0980567 0.388568 0.105004 2.45142 9.7142 27.6251 -0.839303 -1.07849 0.82683 -0.925827 -6.77104 8.1898 
1962 1 1 9.37877 4.66778 2.13854 0 0 1 0.375151 0.186711 0.0855415 9.37877 4.66778 27.1385 1.40705 -0.855106 -1.05471 16.0003 4.53853 3.46335 
76 1 1 9.11411 2.16725 0.640681 0 0 0 0.364564 0.0866901 0.0256272 9.11411 2.16725 0.640681 -0.949903 0.942272 0.0316507 -5.73847 3.49938 -26.5756 
4716 1 1 3.69148 2.52392 4.71837 0 1 0 0.147659 0.100957 0.188735 3.69148 27.5239 4.71837 1.10607 -0.682292 -0.983737 2.25483 14.2623 29.9087 
7819 1 1 11.0576 11.8539 1.07906 0 0 0 0.442302 0.474156 0.0431623 11.0576 11.8539 1.07906 1.14285 0.79398 -0.68798 -6.09423 0.742858 -6.82625 
724 1 1 3.30309 5.41516 4.6139 0 0 0 0.132124 0.216606 0.184556 3.30309 5.41516 4.6139 -0.338389 -0.15893 -0.18297 6.4376 7.28027 10.7917 
2764 1 1 3.28851 5.2008 0.515607 0 0 1 0.13154 0.208032 0.0206243 3.28851 5.2008 25.5156 0.849979 -1.10024 0.026837 8.61753 11.3046 -18.0296 
4642 1 1 3.11841 10.3631 3.56278 0 0 0 0.124736 0.414524 0.142511 3.11841 10.3631 3.56278 -0.164936 0.019249 0.466559 -8.90678 5.78999 -7.18645 
817 1 1 2.44994 2.00872 3.3702 0 0 0 0.0979974 0.0803487 0.134808 2.44994 2.00872 3.3702 0.444952 -0.553368 0.130318 0.106265 10.9709 -4.77459 
10819 1 1 10.7349 6.57669 3.23094 0 0 0 0.429396 0.263068 0.129238 10.7349 6.57669 3.23094 -0.556994 -1.65683 1.02184 33.5568 20.8853 -0.383075 
7525 1 1 5.31431 1.93942 1.29821 0 0 0 0.212573 0.0775767 0.0519286 5.31431 1.93942 1.29821 0.0624128 -0.547717 -0.787631 -11.2948 -16.2624 -30.399 
10719 1 1 7.46214 5.8122 6.09824 0 0 0 0.298486 0.232488 0.243929 7.46214 5.8122 6.09824 0.11725 1.14135 0.491758 -10.7043 22.5359 -12.0616 
2943 1 1 4.0028 0.520214 1.09382 0 0 1 0.160112 0.0208086 0.0437526 4.0028 0.520214 26.0938 -0.628436 -0.638358 -1.64416 -19.5164 28.8399 -15.2609 
7405 1 1 3.24957 11.1382 6.13313 1 0 0 0.129983 0.445528 0.245325 28.2496 11.1382 6.13313 0.977118 -0.749872 0.470269 -1.31929 -4.28621 -4.59082 
1710 1 1 7.54923 0.998237 4.48255 0 0 0 0.301969 0.0399295 0.179302 7.54923 0.998237 4.48255 -0.497761 1.215 0.961329 -2.71542 15.2781 10.7474 
2794 1 1 5.70684 2.66446 1.8877 0 0 1 0.228274 0.106578 0.075508 5.70684 2.66446 26.8877 -1.33246 -0.597527 -0.390189 -11.0723 21.3164 9.03999 
3403 1 1 4.37302 10.9595 0.65948 0 0 0 0.174921 0.438379 0.0263792 4.37302 10.9595 0.65948 1.58965 0.939293 -0.642079 -5.57058 11.3901 -10.493 
9985 1 1 11.4195 9.38213 1.65264 0 0 1 0.456779 0.375285 0.0661056 11.4195 9.38213 26.6526 1.58112 0.129943 1.63573 16.5023 15.1068 12.5983 
3593 1 1 5.31201 4.37312 1.03895 0 1 0 0.21248 0.174925 0.0415579 5.31201 29.3731 1.03895 -1.14691 -0.576277 -0.266896 -21.9904 -14.4759 -3.70911 
1055 1 1 1.13462 1.39233 0.202762 0 0 0 0.0453849 0.0556933 0.00811047 1.13462 1.39233 0.202762 1.09947 0.551161 -0.474657 12.783 -9.73505 10.6645 
13021 1 1 10.9554 5.99564 1.36692 0 1 1 0.438215 0.239825 0.0546767 10.9554 30.9956 26.3669 0.410094 -0.459171 -0.218978 4.81562 5.5966 2.34182 
13274 1 1 4.23151 4.15913 0.783304 1 1 1 0.16926 0.166365 0.0313321 29.2315 29.1591 25.7833 0.304062 0.392663 -0.618947 2.35259 3.70423 -18.2779 
623 1 1 0.330616 0.792495 0.660914 0 0 0 0.0132246 0.0316998 0.0264366 0.330616 0.792495 0.660914 -0.0358262 -2.02343 1.11263 5.31887 -14.8593 -13.6418 
4701 1 1 3.69336 0.139794 0.143046 0 1 0 0.147734 0.00559176 0.00572183 3.69336 25.1398 0.143046 -2.43041 1.78957 0.733562 -23.8504 4.62314 -8.3822 
504 1 1 6.50676 7.4826 0.695203 0 0 0 0.26027 0.299304 0.0278081 6.50676 7.4826 0.695203 -0.0911296 -0.168651 -0.998838 12.1169 -2.80506 6.86183 
557 1 1 11.5715 4.06761 0.0110527 0 0 0 0.46286 0.162704 0.000442107 11.5715 4.06761 0.0110527 1.15158 -1.24216 -0.391102 7.39444 18.3352 -3.04339 
5586 1 1 0.161295 4.16925 4.86644 0 1 0 0.0064518 0.16677 0.194658 0.161295 29.1693 4.86644 0.173334 0.0792402 -1.0858 0.716213 -7.82471 -4.46247 
13490 1 1 7.1399 1.16017 1.07994 1 1 1 0.285596 0.0464067 0.0431978 32.1399 26.1602 26.0799 0.26767 1.26629 -0.85645 -2.9924 2.36098 -0.0604961 
3954 1 1 4.31702 1.18334 1.81126 0 1 0 0.172681 0.0473335 0.0724503 4.31702 26.1833 1.81126 0.348406 -0.544603 -1.87889 17.2588 11.907 11.7284 
10411 1 1 9.75531 11.3162 0.247391 0 0 0 0.390212 0.452648 0.00989566 9.75531 11.3162 0.247391 1.49935 0.480509 -1.58223 -0.0293752 -17.849 -12.8839 
7387 1 1 11.6959 6.99542 1.63633 0 0 0 0.467835 0.279817 0.065453 11.6959 6.99542 1.63633 -0.416039 -0.0111939 -0.721409 2.41968 -5.33857 3.34998 
6521 1 1 0.198533 6.59979 5.85261 0 1 1 0.00794133 0.263992 0.234104 0.198533 31.5998 30.8526 -0.996982 -1.13596 -0.586847 -8.48527 0.234451 -3.7312 
6075 1 1 12.3431 2.08108 0.698205 0 1 1 0.493722 0.0832433 0.0279282 12.3431 27.0811 25.6982 -0.126828 0.353693 -1.5705 -10.4103 1.0084 -21.018 
5931 1 1 11.6478 2.60509 3.58494 0 1 1 0.46591 0.104204 0.143398 11.6478 27.6051 28.5849 0.724614 -0.373275 -1.04915 -10.6435 -25.0571 18.8697 
497 1 1 11.9943 3.32893 3.0221 0 0 0 0.47977 0.133157 0.120884 11.9943 3.32893 3.0221 -0.0893429 0.297062 -0.428086 -4.17229 -3.75137 -0.554026 