ITEM: TIMESTEP
50000
ITEM: NUMBER OF ATOMS
13500
ITEM: BOX BOUNDS
0 25
0 25
0 25
ITEM: ATOMS id type mass x y z ix iy iz xs ys zs xu yu zu vx vy vz fx fy fz 
3381 1 1 0.570001 10.1039 1.86999 0 0 0 0.0228001 0.404156 0.0747996 0.570001 10.1039 1.86999 0.179991 1.26277 -2.64709 1.21084 1.87187 -8.99355 
85 1 1 10.6782 3.89712 4.56519 0 0 0 0.427129 0.155885 0.182608 10.6782 3.89712 4.56519 -0.147114 0.844267 -1.45061 8.90674 37.1415 17.5505 
3206 1 1 7.89468 5.99129 0.552428 0 0 1 0.315787 0.239651 0.0220971 7.89468 5.99129 25.5524 0.253261 0.987578 1.11742 0.186021 -0.90105 15.2461 
1023 1 1 0.595958 4.88121 3.74299 0 0 0 0.0238383 0.195248 0.14972 0.595958 4.88121 3.74299 -0.681527 0.276483 0.730542 -14.1083 -42.9318 25.1394 
3841 1 1 3.7831 10.3473 3.14865 0 0 0 0.151324 0.413893 0.125946 3.7831 10.3473 3.14865 1.50641 -0.47104 0.211237 -2.97706 -2.15188 1.36105 
6934 1 1 12.3675 9.55667 3.45337 0 0 0 0.494699 0.382267 0.138135 12.3675 9.55667 3.45337 0.357394 1.75183 -0.0780571 33.7447 -10.8743 20.1234 
4700 1 1 0.38013 7.58367 5.6427 0 1 0 0.0152052 0.303347 0.225708 0.38013 32.5837 5.6427 -0.444342 -1.12332 1.45778 9.33716 -1.32802 -10.6353 
9877 1 1 2.53716 4.83731 2.52645 1 0 1 0.101486 0.193492 0.101058 27.5372 4.83731 27.5264 -1.44575 -0.374062 1.24891 -16.5094 1.04287 24.8437 
2959 1 1 1.90279 9.25025 3.20585 0 0 1 0.0761117 0.37001 0.128234 1.90279 9.25025 28.2058 -0.158911 1.22828 0.256037 -1.11879 4.70204 7.36483 
77 1 1 3.14272 4.63945 0.26764 0 0 0 0.125709 0.185578 0.0107056 3.14272 4.63945 0.26764 -0.185326 -1.62947 -0.0308197 22.3887 -9.85564 26.7007 
7081 1 1 0.67561 8.58668 0.817966 1 0 0 0.0270244 0.343467 0.0327187 25.6756 8.58668 0.817966 -1.56451 0.329675 0.813353 -8.45073 10.062 5.1923 
11521 1 1 11.6564 7.45483 3.54849 0 0 0 0.466255 0.298193 0.14194 11.6564 7.45483 3.54849 1.52427 0.364195 0.168518 8.40647 6.04251 -12.5449 
3607 1 1 2.41122 5.56894 0.263739 0 0 0 0.0964489 0.222758 0.0105496 2.41122 5.56894 0.263739 0.59306 0.392349 -0.376629 4.71478 -12.5567 4.74941 
9771 1 1 9.20293 7.18939 5.18951 0 0 1 0.368117 0.287575 0.207581 9.20293 7.18939 30.1895 -1.55864 0.818924 0.439472 -7.33684 11.068 -3.0303 
3296 1 1 5.89266 11.3019 0.101008 0 0 1 0.235706 0.452076 0.00404031 5.89266 11.3019 25.101 -1.76478 -0.14515 -1.18639 1.0925 2.94427 -2.76458 
3608 1 1 7.21979 11.0788 1.13686 0 0 0 0.288792 0.443151 0.0454744 7.21979 11.0788 1.13686 0.0293699 1.01747 -2.29142 37.2228 24.1154 25.7263 
474 1 1 10.3854 4.34917 0.590257 0 0 0 0.415418 0.173967 0.0236103 10.3854 4.34917 0.590257 0.520072 1.32369 0.473711 6.4263 -14.9111 -39.2172 
4135 1 1 7.98168 12.4464 3.63704 0 0 0 0.319267 0.497855 0.145482 7.98168 12.4464 3.63704 1.15217 -0.748635 -0.391102 -27.2427 -32.3055 0.76247 
3252 1 1 7.30461 10.1061 3.42202 0 0 1 0.292185 0.404243 0.136881 7.30461 10.1061 28.422 0.760446 1.51691 -0.726781 21.808 4.01607 -1.37664 
7604 1 1 0.36876 11.9565 2.33462 1 0 0 0.0147504 0.478261 0.0933848 25.3688 11.9565 2.33462 0.3737 -0.197547 -0.333235 21.4999 -16.4243 -24.8685 
7973 1 1 11.5405 0.0157562 1.83244 0 0 0 0.461619 0.000630247 0.0732974 11.5405 0.0157562 1.83244 -2.24927 -0.480087 -0.720887 9.7749 -8.18907 5.98507 
13435 1 1 1.53384 0.536543 3.90857 1 1 1 0.0613535 0.0214617 0.156343 26.5338 25.5365 28.9086 0.331249 -0.235864 0.562471 -14.0751 -7.93662 -8.87464 
118 1 1 11.1028 9.45101 2.1254 0 0 0 0.444111 0.37804 0.0850159 11.1028 9.45101 2.1254 -0.905146 1.0598 -1.233 -56.3261 10.8899 -9.02015 
972 1 1 11.1387 8.35515 2.25436 0 0 0 0.445549 0.334206 0.0901743 11.1387 8.35515 2.25436 1.09061 -0.982557 -0.871601 -3.36117 -0.666598 3.98441 
1214 1 1 10.1324 0.257019 4.64086 0 0 0 0.405298 0.0102808 0.185635 10.1324 0.257019 4.64086 0.303616 -1.48827 -0.541206 2.08791 -13.7984 1.88999 
4391 1 1 0.661848 12.3716 5.26144 0 0 0 0.0264739 0.494863 0.210458 0.661848 12.3716 5.26144 -1.2337 1.33329 -0.0998896 -44.2234 33.1737 -43.2063 
16 1 1 0.700465 1.70781 3.50583 0 0 0 0.0280186 0.0683122 0.140233 0.700465 1.70781 3.50583 0.651573 -1.50739 0.328619 -3.38506 -1.15094 -6.23032 
142 1 1 2.99599 11.4688 4.85498 0 0 0 0.11984 0.458753 0.194199 2.99599 11.4688 4.85498 -2.4972 -1.54394 0.0104495 13.3009 0.64015 -19.5255 
5161 1 1 0.174428 10.5262 0.13542 0 1 0 0.00697712 0.421047 0.00541679 0.174428 35.5262 0.13542 0.213235 0.881414 -0.103621 2.86817 -0.661302 -5.41071 
6522 1 1 10.2434 2.21991 1.9213 0 1 1 0.409737 0.0887964 0.0768519 10.2434 27.2199 26.9213 0.934244 -1.37301 0.4201 -4.30133 -6.31558 -2.2828 
7327 1 1 3.71308 6.15321 0.70974 0 0 0 0.148523 0.246128 0.0283896 3.71308 6.15321 0.70974 -0.604356 -0.443049 -1.37832 35.2252 7.86083 0.948687 
729 1 1 9.21784 0.905868 4.69604 0 0 0 0.368714 0.0362347 0.187842 9.21784 0.905868 4.69604 -0.269966 -0.756252 -0.323503 -23.4587 -12.1435 25.1403 
9651 1 1 4.38559 7.69229 0.0762434 1 0 1 0.175424 0.307692 0.00304974 29.3856 7.69229 25.0762 -0.271131 -0.145534 -1.18308 -9.35549 -10.2929 -5.05463 
7769 1 1 4.01429 8.34754 1.13434 1 0 0 0.160572 0.333902 0.0453738 29.0143 8.34754 1.13434 1.35636 -0.449003 -1.14521 -5.82458 22.7915 -10.0675 
732 1 1 4.01607 0.0849608 1.52456 0 0 0 0.160643 0.00339843 0.0609822 4.01607 0.0849608 1.52456 -1.43142 0.674325 0.212791 -8.39228 -15.627 -41.2465 
3788 1 1 6.06593 4.05769 4.51443 0 1 0 0.242637 0.162308 0.180577 6.06593 29.0577 4.51443 -1.29944 -0.218052 -1.71476 16.267 -7.87506 -12.2235 
237 1 1 2.76566 6.69846 2.24456 0 0 0 0.110627 0.267938 0.0897826 2.76566 6.69846 2.24456 -0.133435 -0.181507 -2.06622 -7.86102 7.39383 1.56599 
7097 1 1 0.743115 6.48541 1.41446 0 0 0 0.0297246 0.259416 0.0565783 0.743115 6.48541 1.41446 0.583876 -0.208913 -0.208066 25.5107 30.9115 11.5121 
10101 1 1 1.18682 3.29799 0.797032 1 0 1 0.0474727 0.131919 0.0318813 26.1868 3.29799 25.797 -0.866046 -1.41621 0.530572 -17.1056 4.88677 -16.0521 
510 1 1 9.41485 1.2408 1.92986 0 0 0 0.376594 0.0496319 0.0771944 9.41485 1.2408 1.92986 0.922575 -0.956434 0.909667 0.986737 16.9656 22.0967 
9861 1 1 9.41575 9.07225 0.610804 0 0 1 0.37663 0.36289 0.0244322 9.41575 9.07225 25.6108 -0.752096 0.208432 -0.172939 -9.71977 20.2439 -20.2814 
3954 1 1 6.16766 1.10061 2.49062 0 1 0 0.246706 0.0440246 0.0996248 6.16766 26.1006 2.49062 0.0311847 0.00990085 0.135961 15.6172 18.6155 6.50618 
713 1 1 1.00748 2.93302 1.74939 0 0 0 0.0402993 0.117321 0.0699755 1.00748 2.93302 1.74939 1.13828 -1.96121 1.65054 0.571572 -5.60208 6.94498 
2743 1 1 0.262989 2.06 1.21237 0 0 1 0.0105196 0.0824 0.0484947 0.262989 2.06 26.2124 1.94412 0.393599 1.16648 35.3601 31.0633 23.534 
8247 1 1 0.165308 6.64019 2.95784 1 0 0 0.0066123 0.265608 0.118313 25.1653 6.64019 2.95784 -0.42406 0.743937 0.607971 -2.6234 -42.4973 -0.311323 
3046 1 1 6.4423 3.52452 0.615305 0 0 1 0.257692 0.140981 0.0246122 6.4423 3.52452 25.6153 2.45138 -1.42074 1.22536 11.4436 -20.8988 0.848556 
12564 1 1 10.7648 0.399337 2.80023 0 1 0 0.430592 0.0159735 0.112009 10.7648 25.3993 2.80023 0.511737 -1.5176 -0.169216 34.433 0.343808 -25.2616 
3194 1 1 3.34549 6.68684 4.84696 0 0 1 0.13382 0.267474 0.193878 3.34549 6.68684 29.847 0.259285 -0.0736325 -0.551356 31.995 36.1463 34.5769 
3554 1 1 1.63935 5.06364 0.843137 0 1 0 0.0655738 0.202546 0.0337255 1.63935 30.0636 0.843137 0.225176 -1.8225 -1.64545 17.9969 5.74304 -60.5647 
3006 1 1 1.35604 7.86389 2.41367 0 0 1 0.0542415 0.314556 0.096547 1.35604 7.86389 27.4137 2.09684 -0.0757857 0.32463 2.46926 19.1079 8.93642 
10053 1 1 9.03313 6.14901 5.18001 0 0 1 0.361325 0.24596 0.2072 9.03313 6.14901 30.18 1.38809 0.710826 -0.320645 12.0677 5.87413 -14.4122 
661 1 1 1.66445 12.3914 0.0239131 0 0 0 0.066578 0.495654 0.000956522 1.66445 12.3914 0.0239131 -0.538511 0.527425 0.226488 -3.70828 29.2045 -0.10419 
10090 1 1 9.73611 7.27894 1.19982 0 0 1 0.389444 0.291157 0.047993 9.73611 7.27894 26.1998 -0.384886 -2.24332 -0.539418 -11.8127 -1.43048 -26.1992 
113 1 1 0.449781 11.8122 0.67952 0 0 0 0.0179912 0.472486 0.0271808 0.449781 11.8122 0.67952 -0.00842839 -1.4637 -0.0600369 -10.8973 -1.63658 -2.59218 
3 1 1 5.43324 5.94007 2.45286 0 0 0 0.21733 0.237603 0.0981144 5.43324 5.94007 2.45286 -0.574663 1.46644 0.0507305 0.382224 -24.541 -7.05016 
10146 1 1 7.67996 11.8831 4.67655 0 0 0 0.307198 0.475322 0.187062 7.67996 11.8831 4.67655 -2.0224 -0.180451 -0.455016 24.6701 21.1138 -3.01753 
7349 1 1 2.34518 1.28747 5.02687 1 0 0 0.093807 0.0514988 0.201075 27.3452 1.28747 5.02687 0.663384 -0.864844 1.26327 -18.0436 12.6549 34.6907 
7588 1 1 9.94506 8.31864 2.7182 0 0 0 0.397803 0.332745 0.108728 9.94506 8.31864 2.7182 -0.0450835 -1.07946 0.374669 -18.6317 3.08112 -26.5999 
888 1 1 4.26508 3.21643 3.00113 0 0 0 0.170603 0.128657 0.120045 4.26508 3.21643 3.00113 -1.22605 0.964081 1.09324 15.2908 -12.7051 -25.4239 
885 1 1 6.93495 7.00442 1.97878 0 0 0 0.277398 0.280177 0.0791511 6.93495 7.00442 1.97878 0.238169 -1.03995 1.58094 19.4387 8.25944 -1.84633 
7858 1 1 3.37968 12.4755 3.93573 1 0 0 0.135187 0.49902 0.157429 28.3797 12.4755 3.93573 -0.114988 0.517389 1.62648 16.3784 -0.581288 18.5574 
1004 1 1 6.08708 0.496749 0.674318 0 0 0 0.243483 0.0198699 0.0269727 6.08708 0.496749 0.674318 -0.139563 0.44976 -1.26082 -0.573994 -4.23916 2.38031 
13297 1 1 11.9292 10.0096 5.69256 0 0 1 0.477169 0.400384 0.227702 11.9292 10.0096 30.6926 -0.173173 -1.17939 0.58751 -10.9444 10.3539 -11.9451 
11267 1 1 11.0641 9.04087 3.11919 0 0 0 0.442564 0.361635 0.124768 11.0641 9.04087 3.11919 0.708748 0.163913 -0.660896 -7.80642 -15.6862 4.56422 
10993 1 1 1.14458 5.17544 2.77078 1 1 0 0.0457832 0.207018 0.110831 26.1446 30.1754 2.77078 0.327652 1.25774 3.12648 2.436 6.45735 -26.7745 
395 1 1 3.79505 7.1123 2.85848 0 0 0 0.151802 0.284492 0.114339 3.79505 7.1123 2.85848 0.700843 -0.822979 -0.751609 -9.28019 -3.5561 -18.5972 
2948 1 1 6.79021 6.83322 0.808697 0 0 1 0.271608 0.273329 0.0323479 6.79021 6.83322 25.8087 -0.868939 0.0589265 -0.714598 5.13692 -3.94627 11.2174 
6869 1 1 3.14717 11.203 2.09076 1 0 0 0.125887 0.448119 0.0836303 28.1472 11.203 2.09076 0.163702 0.0726826 -1.21323 -7.93188 9.7583 10.8063 
177 1 1 11.9826 8.68361 4.00026 0 0 0 0.479305 0.347345 0.16001 11.9826 8.68361 4.00026 -2.03174 0.745792 -1.38763 -17.7283 32.5644 65.041 
1076 1 1 10.9035 8.03879 1.25605 0 0 0 0.43614 0.321552 0.0502419 10.9035 8.03879 1.25605 0.669387 -0.987188 1.78593 -43.4575 12.6189 8.47683 
13021 1 1 8.85188 7.59862 1.68442 0 1 1 0.354075 0.303945 0.0673768 8.85188 32.5986 26.6844 -1.0868 -0.706297 -0.943467 -4.10203 8.752 -3.3032 
5810 1 1 9.2576 4.19297 0.798931 0 1 1 0.370304 0.167719 0.0319572 9.2576 29.193 25.7989 0.425032 -0.0369117 0.000482651 18.0926 4.14909 5.98945 
234 1 1 7.34597 4.82826 3.94097 0 0 0 0.293839 0.193131 0.157639 7.34597 4.82826 3.94097 1.67314 0.641057 1.56312 7.17572 -13.0992 6.88706 
143 1 1 7.79148 5.17196 1.98475 0 0 0 0.311659 0.206878 0.0793901 7.79148 5.17196 1.98475 0.695395 2.75227 -2.41151 40.2384 10.3918 -23.2268 
13213 1 1 1.4105 12.418 2.20555 1 0 1 0.0564201 0.496719 0.0882219 26.4105 12.418 27.2055 0.0889735 -0.467327 0.902493 -6.73173 2.71514 -7.29376 
5982 1 1 9.80688 12.4477 0.919769 0 0 1 0.392275 0.497907 0.0367907 9.80688 12.4477 25.9198 1.43449 -0.186969 0.841535 -24.6958 1.96628 -11.679 
4149 1 1 6.09754 6.98612 2.61456 0 1 0 0.243902 0.279445 0.104582 6.09754 31.9861 2.61456 1.31605 0.586175 -0.516137 2.53039 6.24447 -1.92682 
1250 1 1 2.67283 1.13758 4.1058 0 0 0 0.106913 0.0455033 0.164232 2.67283 1.13758 4.1058 0.625224 0.223501 0.0920235 20.4966 -5.36207 -42.9566 
3289 1 1 4.48009 2.31822 2.40706 0 0 1 0.179203 0.0927288 0.0962824 4.48009 2.31822 27.4071 -0.473212 -1.23011 -1.28717 25.1846 11.6213 -10.8438 
3258 1 1 10.867 7.06833 5.33806 0 0 1 0.43468 0.282733 0.213522 10.867 7.06833 30.3381 1.23545 1.07039 0.409165 -9.35444 23.4371 -21.867 
39 1 1 4.44772 1.41612 3.05212 0 0 0 0.177909 0.0566448 0.122085 4.44772 1.41612 3.05212 0.0437623 0.532981 -0.913653 4.38608 -15.3925 0.771281 
10165 1 1 3.61836 12.2559 2.10636 1 0 0 0.144735 0.490236 0.0842545 28.6184 12.2559 2.10636 -1.60174 -1.28559 1.91765 12.1223 4.35072 -29.0389 
352 1 1 8.31894 10.8327 1.23383 0 0 0 0.332758 0.433309 0.0493531 8.31894 10.8327 1.23383 1.46949 0.0876656 1.96508 -49.3977 -17.2279 38.4252 
2979 1 1 2.40128 9.41294 0.378416 0 0 1 0.0960511 0.376518 0.0151366 2.40128 9.41294 25.3784 -0.0369312 1.63438 0.377851 7.20251 6.09541 -8.67495 
2843 1 1 6.0895 11.857 3.27352 0 0 1 0.24358 0.474281 0.130941 6.0895 11.857 28.2735 -0.498181 2.57646 0.0976886 18.9657 -7.08761 0.99407 
7480 1 1 1.30866 1.00115 1.04527 1 0 0 0.0523463 0.0400459 0.0418106 26.3087 1.00115 1.04527 -0.914658 -0.0799933 -1.05016 23.5402 14.3924 1.86097 
5409 1 1 5.3961 9.37837 1.11008 0 0 1 0.215844 0.375135 0.0444033 5.3961 9.37837 26.1101 1.22362 -0.259184 0.822426 -21.0485 55.5537 -17.6857 
4259 1 1 5.79743 1.60447 0.670086 0 1 0 0.231897 0.064179 0.0268034 5.79743 26.6045 0.670086 -0.351265 1.5776 -1.12096 -62.8005 -54.0044 -30.3178 
3603 1 1 5.90412 8.93925 0.284835 0 0 0 0.236165 0.35757 0.0113934 5.90412 8.93925 0.284835 0.264773 0.0144934 -1.25013 6.91922 6.02895 -34.3201 
3357 1 1 3.04715 9.89416 5.27202 0 0 1 0.121886 0.395767 0.210881 3.04715 9.89416 30.272 -1.19056 -0.0348125 0.0539121 15.7589 4.47204 10.1427 
4869 1 1 6.73311 0.101385 5.84217 0 1 0 0.269325 0.00405541 0.233687 6.73311 25.1014 5.84217 0.44554 0.0299863 -2.40718 11.3581 9.6425 -8.63951 
138 1 1 7.91335 1.0894 3.26102 0 0 0 0.316534 0.043576 0.130441 7.91335 1.0894 3.26102 0.613227 0.940736 -0.264243 3.53908 1.23395 9.64537 
10295 1 1 11.9533 1.70055 2.80323 0 1 0 0.478133 0.0680221 0.112129 11.9533 26.7006 2.80323 0.718617 -1.61047 2.44782 -31.8042 -23.9357 12.9726 
278 1 1 1.48744 2.07156 2.53669 0 0 0 0.0594975 0.0828626 0.101468 1.48744 2.07156 2.53669 0.00395989 0.388516 -0.209105 7.34304 12.0958 11.9516 
6814 1 1 10.0719 7.14382 3.38438 0 0 0 0.402877 0.285753 0.135375 10.0719 7.14382 3.38438 -0.379291 -0.690957 0.616785 20.8744 -20.912 47.1589 
7603 1 1 6.53729 9.67798 0.83292 1 0 0 0.261492 0.387119 0.0333168 31.5373 9.67798 0.83292 -0.555901 0.0919163 -0.971702 4.13617 -37.6837 14.0728 
7297 1 1 4.28049 4.45031 0.278251 0 0 0 0.17122 0.178012 0.01113 4.28049 4.45031 0.278251 -0.845773 -1.2576 -0.381574 1.73598 -8.26729 12.2949 
2765 1 1 2.33446 1.95486 0.372417 0 0 1 0.0933783 0.0781946 0.0148967 2.33446 1.95486 25.3724 -0.506261 -0.68746 -0.877486 -11.8886 15.945 -5.11225 
1334 1 1 7.32887 2.69571 2.4136 0 0 0 0.293155 0.107828 0.0965439 7.32887 2.69571 2.4136 0.132186 0.277248 -0.298729 6.49833 -14.1379 -19.3598 
3125 1 1 4.65488 6.00732 3.52793 0 0 1 0.186195 0.240293 0.141117 4.65488 6.00732 28.5279 0.808058 -0.334537 -0.191452 14.0756 -7.5925 -17.7738 
4008 1 1 2.55758 4.68884 1.54506 0 1 0 0.102303 0.187554 0.0618025 2.55758 29.6888 1.54506 -0.115549 0.713662 -1.31107 4.47354 1.49625 5.72363 
2859 1 1 1.7287 7.07407 0.854881 0 0 1 0.0691479 0.282963 0.0341952 1.7287 7.07407 25.8549 -1.40645 1.19452 -0.189309 4.03789 12.1147 -5.22849 
7184 1 1 10.583 8.06219 3.42837 1 0 0 0.423318 0.322488 0.137135 35.583 8.06219 3.42837 0.488954 0.517149 -1.08739 50.0124 -23.7222 7.03764 
7060 1 1 3.95576 10.397 0.592805 1 0 0 0.15823 0.415882 0.0237122 28.9558 10.397 0.592805 0.110465 0.528601 -0.301794 17.5429 21.2426 20.6595 
439 1 1 8.67396 10.9582 2.95335 0 0 0 0.346958 0.438329 0.118134 8.67396 10.9582 2.95335 1.91883 0.27209 -0.781402 2.89522 -15.7576 19.335 
13274 1 1 0.413459 2.36848 2.43973 1 1 1 0.0165384 0.0947391 0.0975893 25.4135 27.3685 27.4397 -0.965489 -1.42568 -1.13359 -3.31906 -3.89139 -3.02803 
2498 1 1 2.17509 1.82719 3.35593 0 0 1 0.0870035 0.0730878 0.134237 2.17509 1.82719 28.3559 -2.44913 -0.585949 -0.046241 8.65627 5.79638 -8.90663 
3271 1 1 2.21081 8.81857 2.30553 0 0 1 0.0884322 0.352743 0.0922213 2.21081 8.81857 27.3055 -0.104548 0.769691 -0.428885 0.889884 -5.63268 -2.08581 
498 1 1 7.44306 4.05406 5.94049 0 0 0 0.297722 0.162162 0.23762 7.44306 4.05406 5.94049 -0.804042 0.337757 0.0788807 -18.5383 2.17263 3.53941 
3770 1 1 3.57109 0.474823 5.59975 0 1 0 0.142844 0.0189929 0.22399 3.57109 25.4748 5.59975 -1.13795 -0.125844 -0.0377445 62.0332 26.3858 -4.5047 
4051 1 1 2.38251 5.6918 1.80188 0 0 0 0.0953006 0.227672 0.0720752 2.38251 5.6918 1.80188 0.333053 0.0918968 -0.989457 41.8242 -5.72857 -30.4506 
7134 1 1 2.41479 8.21957 4.25371 1 0 0 0.0965915 0.328783 0.170148 27.4148 8.21957 4.25371 0.0410415 -0.55484 0.0182879 15.2564 -6.2905 17.1828 
2881 1 1 1.26396 8.80106 3.99297 0 0 1 0.0505583 0.352043 0.159719 1.26396 8.80106 28.993 -0.325916 0.969044 0.771599 23.7368 13.527 22.6288 
11161 1 1 8.31397 0.654133 4.17018 0 1 0 0.332559 0.0261653 0.166807 8.31397 25.6541 4.17018 1.45148 -0.365633 -0.58552 14.3988 -16.7336 -48.032 
9482 1 1 4.57005 1.89125 1.07095 0 0 1 0.182802 0.0756499 0.0428382 4.57005 1.89125 26.071 0.416899 -0.83065 1.32937 10.6361 1.15125 10.8887 
6194 1 1 12.0296 6.90046 2.60162 0 0 1 0.481184 0.276018 0.104065 12.0296 6.90046 27.6016 -1.68381 0.442561 1.03967 -18.8363 -9.86462 -11.2112 
6876 1 1 0.596802 9.69002 3.81626 0 0 0 0.0238721 0.387601 0.15265 0.596802 9.69002 3.81626 -0.28768 1.73585 1.06655 -21.5596 -11.3961 -3.41764 
7090 1 1 0.950087 9.53307 2.64664 1 0 0 0.0380035 0.381323 0.105866 25.9501 9.53307 2.64664 0.380436 -0.846465 -0.125241 11.4492 29.0606 41.1218 
10776 1 1 4.33095 4.15595 2.35412 0 1 0 0.173238 0.166238 0.0941649 4.33095 29.156 2.35412 -0.763955 1.80255 -0.436429 7.08635 20.2787 12.3705 
112 1 1 6.96929 3.40607 4.40996 0 0 0 0.278772 0.136243 0.176398 6.96929 3.40607 4.40996 0.347025 -2.32319 -1.02988 -13.0566 2.54612 -18.0773 
3563 1 1 6.1269 0.167436 3.47865 0 1 0 0.245076 0.00669743 0.139146 6.1269 25.1674 3.47865 0.426964 -0.508279 0.825596 19.6961 17.2866 -10.6617 
571 1 1 1.63867 4.05801 2.66405 0 0 0 0.065547 0.16232 0.106562 1.63867 4.05801 2.66405 1.56864 0.640936 -0.241977 18.0465 -1.98117 11.7635 
7668 1 1 9.23199 0.0370946 2.22428 0 0 0 0.36928 0.00148379 0.088971 9.23199 0.0370946 2.22428 1.51687 -0.514063 0.964975 12.7159 -14.2991 -17.594 
13293 1 1 9.81281 0.787418 2.75039 0 0 1 0.392512 0.0314967 0.110015 9.81281 0.787418 27.7504 -1.13236 -1.61055 0.652902 1.81634 1.15814 -1.49697 
322 1 1 0.144642 9.64021 0.91721 0 0 0 0.00578568 0.385608 0.0366884 0.144642 9.64021 0.91721 0.0389777 0.426159 0.937361 -11.743 -0.0694344 -2.53389 
213 1 1 7.41978 8.58025 2.79953 0 0 0 0.296791 0.34321 0.111981 7.41978 8.58025 2.79953 0.503344 0.238207 -0.366754 20.1545 18.1194 -9.27476 
448 1 1 5.94663 10.0434 -0.00231865 0 0 0 0.237865 0.401736 -9.27459e-05 5.94663 10.0434 -0.00231865 -1.48471 -0.0261518 -0.11881 -6.54596 9.37005 9.80987 
4022 1 1 8.56602 7.4142 2.71171 0 1 0 0.342641 0.296568 0.108468 8.56602 32.4142 2.71171 0.526328 -0.80011 0.702465 -29.8001 -0.820965 -11.3164 
3371 1 1 9.63923 5.61399 4.4566 0 0 1 0.385569 0.22456 0.178264 9.63923 5.61399 29.4566 1.73651 -0.874455 -0.151708 7.63965 -0.871693 -14.5089 
7255 1 1 1.63914 5.03806 3.61307 1 0 0 0.0655654 0.201523 0.144523 26.6391 5.03806 3.61307 1.0391 -1.1636 -0.160376 21.6026 -13.9823 14.4896 
1505 1 1 9.16099 10.1218 0.52109 0 0 0 0.36644 0.404872 0.0208436 9.16099 10.1218 0.52109 -0.913201 -1.94285 -1.44119 -17.3091 -28.9186 -24.0376 
4260 1 1 4.03363 3.26696 5.95032 0 1 0 0.161345 0.130679 0.238013 4.03363 28.267 5.95032 0.574641 2.66832 -0.0441839 15.4181 28.1952 -20.1124 
8955 1 1 8.61518 11.8636 2.54932 1 0 1 0.344607 0.474543 0.101973 33.6152 11.8636 27.5493 -0.959692 0.807229 0.806347 17.8234 29.3052 5.35974 
2674 1 1 10.0969 3.67639 2.23083 0 0 1 0.403875 0.147055 0.0892332 10.0969 3.67639 27.2308 -0.604407 -1.31288 2.32558 3.74267 -23.874 -17.7807 
4121 1 1 0.930329 2.55314 5.80925 0 1 0 0.0372131 0.102126 0.23237 0.930329 27.5531 5.80925 -0.469647 0.946556 -0.311961 0.873103 1.91161 0.600711 
2807 1 1 3.32819 7.55639 1.85207 0 0 1 0.133128 0.302255 0.074083 3.32819 7.55639 26.8521 0.96666 -0.614673 0.511869 -3.02239 -4.77529 12.2191 
4615 1 1 3.36946 11.954 3.01634 0 0 0 0.134778 0.47816 0.120654 3.36946 11.954 3.01634 0.828392 -0.963071 0.502988 -37.7021 4.49541 22.4697 
6660 1 1 9.84825 12.0001 1.94452 0 0 1 0.39393 0.480003 0.0777809 9.84825 12.0001 26.9445 -1.42495 -0.777958 0.206869 8.46032 8.42393 -1.60568 
7441 1 1 6.7442 0.879532 5.07277 0 0 0 0.269768 0.0351813 0.202911 6.7442 0.879532 5.07277 0.156699 -0.0651165 2.03214 12.0369 6.42513 14.34 
10011 1 1 1.4953 6.3363 4.57951 1 0 1 0.059812 0.253452 0.183181 26.4953 6.3363 29.5795 1.0889 0.591646 -0.265846 0.982127 8.75901 -1.07931 
10113 1 1 11.488 10.4259 2.08909 0 0 1 0.459521 0.417036 0.0835637 11.488 10.4259 27.0891 -0.366938 0.849024 2.11226 8.61749 2.50256 -2.76493 
4907 1 1 1.21353 3.84917 6.08927 0 1 0 0.0485411 0.153967 0.243571 1.21353 28.8492 6.08927 0.484145 -0.803315 0.477537 -11.7083 -12.51 7.48306 
10529 1 1 5.31368 0.928636 1.78027 0 1 0 0.212547 0.0371454 0.0712108 5.31368 25.9286 1.78027 -1.15401 -0.59907 -1.38274 -1.36449 -1.71813 -2.22333 
3203 1 1 6.28384 7.80849 1.77726 0 0 1 0.251354 0.312339 0.0710902 6.28384 7.80849 26.7773 -0.286573 -0.34672 0.156641 -27.3837 -45.7271 14.9542 
3251 1 1 3.71433 0.414157 0.0639005 0 0 1 0.148573 0.0165663 0.00255602 3.71433 0.414157 25.0639 -0.656202 -1.07882 -0.239295 -3.16562 -0.141574 7.65806 
8656 1 1 0.129935 7.7009 0.491861 1 0 1 0.00519738 0.308036 0.0196744 25.1299 7.7009 25.4919 -1.39198 -1.40171 0.451971 18.8253 39.3281 -0.933325 
10450 1 1 5.28244 1.22006 5.5142 1 1 0 0.211298 0.0488023 0.220568 30.2824 26.2201 5.5142 -1.052 -1.54495 -1.00962 18.5843 7.4552 -8.80982 
1682 1 1 6.87335 11.6139 6.11813 0 0 0 0.274934 0.464555 0.244725 6.87335 11.6139 6.11813 -0.486613 0.946274 1.37654 27.2646 1.63049 -16.1221 
12684 1 1 7.09389 5.36357 2.66404 0 1 1 0.283756 0.214543 0.106562 7.09389 30.3636 27.664 -0.597536 -1.06367 -0.468346 -8.02253 6.63207 8.70347 
3036 1 1 0.118935 3.18629 1.19125 0 0 1 0.0047574 0.127452 0.0476499 0.118935 3.18629 26.1912 -0.158746 0.0223222 0.666402 11.2909 2.46962 12.4577 
745 1 1 9.28182 2.42685 1.35671 0 0 0 0.371273 0.0970739 0.0542684 9.28182 2.42685 1.35671 0.260622 -0.646715 -0.632008 2.51755 11.4112 -33.0761 
469 1 1 3.89552 1.01115 3.94411 0 0 0 0.155821 0.0404458 0.157764 3.89552 1.01115 3.94411 -0.283878 0.0424741 0.800545 16.9403 36.5871 65.9949 
13353 1 1 11.0985 9.67732 0.146 0 0 1 0.443941 0.387093 0.00583998 11.0985 9.67732 25.146 -1.08933 1.70094 -1.51698 2.71328 -5.45199 -24.1858 
46 1 1 4.69625 10.3096 2.64444 0 0 0 0.18785 0.412386 0.105777 4.69625 10.3096 2.64444 -1.17779 1.2853 -1.18233 -0.668889 -14.7713 3.69157 
231 1 1 1.91892 1.86602 1.60107 0 0 0 0.076757 0.0746408 0.0640429 1.91892 1.86602 1.60107 -0.89889 -1.12637 -0.383483 -13.1356 -0.7702 -21.6559 
3065 1 1 2.61877 5.34327 3.6431 0 0 1 0.104751 0.213731 0.145724 2.61877 5.34327 28.6431 0.226413 -0.0617746 2.22729 16.2202 -16.2342 -8.94163 
7231 1 1 4.76114 1.4698 4.2415 0 0 0 0.190446 0.058792 0.16966 4.76114 1.4698 4.2415 -0.28434 0.393947 1.34585 1.27289 -1.77585 -2.44612 
1030 1 1 2.03858 5.12008 4.67337 0 0 0 0.0815432 0.204803 0.186935 2.03858 5.12008 4.67337 -0.885433 0.121199 1.31603 26.0852 3.09718 -0.601883 
783 1 1 1.76782 7.08291 1.99647 0 0 0 0.0707127 0.283317 0.0798586 1.76782 7.08291 1.99647 1.15372 -0.909445 1.74241 9.69728 -36.1419 -15.1365 
9400 1 1 11.5916 10.2603 0.787982 0 0 1 0.463664 0.410411 0.0315193 11.5916 10.2603 25.788 0.926197 -1.14828 0.288089 -24.8765 -43.8342 -3.28062 
770 1 1 0.502847 0.422334 0.95782 0 0 0 0.0201139 0.0168934 0.0383128 0.502847 0.422334 0.95782 1.91102 0.563819 -1.00263 -26.9444 46.2049 -32.291 
6763 1 1 10.6716 2.21742 4.02313 0 0 0 0.426863 0.0886969 0.160925 10.6716 2.21742 4.02313 -0.472291 -0.0707535 -1.96327 -6.73811 5.57511 8.51801 
3888 1 1 7.29429 1.91956 1.52075 0 1 0 0.291772 0.0767822 0.06083 7.29429 26.9196 1.52075 -1.3762 1.32332 0.305216 27.7985 -1.41992 2.57573 
7070 1 1 8.6134 8.5681 0.987436 0 0 0 0.344536 0.342724 0.0394974 8.6134 8.5681 0.987436 -0.896393 -0.405603 1.28852 -33.2546 -4.22733 7.50042 
570 1 1 12.5018 2.82444 4.8079 0 0 0 0.500073 0.112977 0.192316 12.5018 2.82444 4.8079 0.0161888 -0.246632 0.0293732 -20.7468 -8.75775 40.7496 
114 1 1 9.50732 5.95737 0.23229 0 0 0 0.380293 0.238295 0.0092916 9.50732 5.95737 0.23229 0.742556 -0.411118 -0.861201 4.57136 -67.0278 11.0643 
2345 1 1 1.83142 8.97957 1.10268 0 0 1 0.073257 0.359183 0.0441073 1.83142 8.97957 26.1027 -0.274056 0.739047 -0.731453 17.6661 -15.6577 57.1044 
7351 1 1 10.3072 8.26266 0.407598 0 0 0 0.412287 0.330506 0.0163039 10.3072 8.26266 0.407598 -0.878651 0.65619 -0.321478 -27.0557 -11.2599 -4.11716 
392 1 1 5.11989 5.89583 0.203577 0 0 0 0.204796 0.235833 0.00814308 5.11989 5.89583 0.203577 0.409574 0.372041 2.11548 -27.7729 1.99216 6.8048 
1670 1 1 5.0676 7.5355 4.419 0 0 0 0.202704 0.30142 0.17676 5.0676 7.5355 4.419 -0.661799 -0.590867 2.12528 -2.97625 14.8347 -0.364781 
121 1 1 0.720289 4.2603 1.12117 0 0 0 0.0288116 0.170412 0.0448469 0.720289 4.2603 1.12117 0.32076 0.183934 1.20776 -0.252579 -9.69456 -4.08154 
111 1 1 5.98872 10.7241 4.61471 0 0 0 0.239549 0.428962 0.184588 5.98872 10.7241 4.61471 -0.49294 0.122352 0.0605099 -22.1834 49.3914 -24.0606 
3204 1 1 8.91938 6.56892 0.929904 0 0 1 0.356775 0.262757 0.0371962 8.91938 6.56892 25.9299 -0.878232 -0.540272 -1.00218 26.4697 -1.95908 58.8754 
10654 1 1 10.0851 1.09009 5.53154 0 1 0 0.403403 0.0436034 0.221262 10.0851 26.0901 5.53154 -0.579237 0.267553 -0.144584 11.7097 14.2566 -71.5142 
3753 1 1 2.70456 9.90233 3.78169 0 0 0 0.108182 0.396093 0.151268 2.70456 9.90233 3.78169 1.16775 -1.32983 0.454004 14.3666 -17.4142 -15.2267 
7098 1 1 8.50132 3.37839 3.01144 0 0 0 0.340053 0.135136 0.120458 8.50132 3.37839 3.01144 0.977053 -1.50372 -1.92162 -10.7615 3.46762 -24.834 
7185 1 1 5.47723 11.4937 3.99809 1 0 0 0.219089 0.459746 0.159924 30.4772 11.4937 3.99809 0.425044 1.47468 1.09323 -0.209905 4.48645 21.7285 
1193 1 1 2.60583 4.05544 3.28365 0 0 0 0.104233 0.162218 0.131346 2.60583 4.05544 3.28365 -2.47415 0.153719 -0.995203 25.3436 -3.3926 -22.4838 
10430 1 1 9.3807 10.7006 3.74345 0 0 0 0.375228 0.428023 0.149738 9.3807 10.7006 3.74345 -0.617727 -0.272435 0.493609 -1.18277 3.00834 -24.7549 
4258 1 1 5.32554 0.520347 2.89402 0 1 0 0.213021 0.0208139 0.115761 5.32554 25.5203 2.89402 -1.10821 -0.00346572 -0.694292 -8.95704 1.07304 -10.79 
98 1 1 1.21109 6.3457 2.7281 0 0 0 0.0484434 0.253828 0.109124 1.21109 6.3457 2.7281 0.114023 1.1433 0.0753158 0.0459171 -1.08568 -1.82525 
7525 1 1 5.36555 1.70967 2.55008 0 0 0 0.214622 0.0683869 0.102003 5.36555 1.70967 2.55008 1.25826 -1.48608 0.951977 -17.0396 19.7143 -20.6443 
547 1 1 9.52789 5.22381 3.02296 0 0 0 0.381116 0.208952 0.120918 9.52789 5.22381 3.02296 0.768492 -0.368329 -0.806009 -1.44939 7.70247 -7.37632 
3430 1 1 4.11757 12.3353 0.968302 0 0 0 0.164703 0.493411 0.0387321 4.11757 12.3353 0.968302 0.00772771 0.22773 0.658849 -0.281481 7.09345 -1.66961 
107 1 1 6.7209 6.00684 4.29541 0 0 0 0.268836 0.240274 0.171816 6.7209 6.00684 4.29541 0.766878 -0.340097 0.351076 3.55318 32.3041 24.0563 
115 1 1 5.89605 8.60117 1.22339 0 0 0 0.235842 0.344047 0.0489358 5.89605 8.60117 1.22339 0.404889 0.00107815 -0.780056 34.2907 -69.4917 28.145 
584 1 1 3.07215 8.97961 3.56782 0 0 0 0.122886 0.359184 0.142713 3.07215 8.97961 3.56782 -0.0184453 1.07563 -0.00918958 -13.7632 1.95587 -12.0942 
2941 1 1 10.954 2.97903 1.87932 0 0 1 0.438159 0.119161 0.0751728 10.954 2.97903 26.8793 0.528176 -0.104039 0.679273 3.64387 7.28811 -1.91414 
5273 1 1 11.8595 11.9351 1.42865 0 0 0 0.474382 0.477402 0.057146 11.8595 11.9351 1.42865 2.72796 -0.652156 -1.04417 22.8438 38.3578 20.3779 
470 1 1 9.88392 1.88095 3.13174 0 0 0 0.395357 0.075238 0.12527 9.88392 1.88095 3.13174 -0.0480327 -1.72529 0.954709 12.1878 1.21265 6.47403 
769 1 1 3.70157 5.39907 4.84495 0 0 0 0.148063 0.215963 0.193798 3.70157 5.39907 4.84495 -0.921684 -0.973496 0.271316 0.344406 -8.33757 35.728 
1467 1 1 11.3374 9.06189 1.22559 0 0 0 0.453496 0.362476 0.0490236 11.3374 9.06189 1.22559 -1.04821 -1.10468 -0.122958 -25.1752 -13.5505 -21.9495 
11063 1 1 4.77368 11.0137 3.4736 1 0 0 0.190947 0.440548 0.138944 29.7737 11.0137 3.4736 -0.592353 -0.254093 1.30032 -18.377 -9.40565 -18.6197 
1312 1 1 0.853661 8.39433 3.19284 0 0 0 0.0341464 0.335773 0.127714 0.853661 8.39433 3.19284 -0.818374 2.27561 0.5443 -11.6924 -10.8936 -19.2548 
6626 1 1 6.06456 12.4731 0.640405 0 0 1 0.242582 0.498924 0.0256162 6.06456 12.4731 25.6404 0.0918824 1.90944 0.211353 6.62265 -9.72669 -2.27101 
7414 1 1 8.81809 12.4178 4.51957 0 0 0 0.352724 0.49671 0.180783 8.81809 12.4178 4.51957 0.627951 0.73541 -0.155328 -3.55692 -0.818576 -1.28015 
771 1 1 1.16574 9.56722 6.16453 0 0 0 0.0466298 0.382689 0.246581 1.16574 9.56722 6.16453 0.735341 0.651889 -1.32016 -22.6214 14.369 0.357686 
3067 1 1 5.08991 11.9125 2.89021 0 0 1 0.203596 0.476499 0.115608 5.08991 11.9125 27.8902 -0.467765 -0.32171 0.759887 -14.9727 -11.5679 16.5856 
4685 1 1 7.90931 4.35473 2.52538 0 1 0 0.316372 0.174189 0.101015 7.90931 29.3547 2.52538 -0.367638 0.159389 -0.251068 5.84789 -13.0282 -15.2407 
8135 1 1 9.09187 2.17628 5.18106 0 0 0 0.363675 0.0870514 0.207243 9.09187 2.17628 5.18106 0.0343144 0.595161 1.00644 -0.382654 -34.0672 13.4836 
387 1 1 3.48704 6.16679 1.7627 0 0 0 0.139482 0.246672 0.0705082 3.48704 6.16679 1.7627 -0.0456931 1.16031 -1.17404 12.3279 -1.27034 -6.60375 
4465 1 1 7.80084 0.379576 4.97518 0 1 0 0.312034 0.015183 0.199007 7.80084 25.3796 4.97518 1.714 0.573225 -1.28379 -21.8992 -19.5405 24.079 
9666 1 1 6.15494 8.94846 3.40896 0 0 1 0.246198 0.357939 0.136358 6.15494 8.94846 28.409 0.0787262 1.57209 -0.418569 -9.91665 29.1524 -31.1193 
1131 1 1 5.78584 0.437965 4.83494 0 0 0 0.231434 0.0175186 0.193398 5.78584 0.437965 4.83494 0.699941 -0.0423028 0.20197 -11.2252 -10.608 11.8523 
1746 1 1 6.33655 7.8443 5.74817 0 0 0 0.253462 0.313772 0.229927 6.33655 7.8443 5.74817 -0.188866 1.10556 -0.920808 -6.11169 -2.51786 7.696 
3377 1 1 5.71079 11.6394 2.14823 0 0 0 0.228431 0.465574 0.0859294 5.71079 11.6394 2.14823 -0.998433 -0.0350466 -0.252506 12.1535 6.95967 -2.77417 