
################# geometry #################

neighbor	1.0 bin
neigh_modify delay 5 every 1

lattice 	fcc ${liq_dens}
lattice 	fcc 0.8389
Lattice spacing in x,y,z = 1.68313 1.68313 1.68313

region 		sim_box block 	0 ${sim_box_x} 0 ${sim_box_y} 0 ${sim_box_z} units box
region 		sim_box block 	0 25 0 ${sim_box_y} 0 ${sim_box_z} units box
region 		sim_box block 	0 25 0 25 0 ${sim_box_z} units box
region 		sim_box block 	0 25 0 25 0 25 units box
region 		liq_init block 	0 ${liq_x} 0 ${liq_y} 0 ${liq_z} units box
region 		liq_init block 	0 25 0 ${liq_y} 0 ${liq_z} units box
region 		liq_init block 	0 25 0 25 0 ${liq_z} units box
region 		liq_init block 	0 25 0 25 0 25 units box

################# create and initialize atoms {if not restarting} #############################

create_box	1 sim_box
Created orthogonal box = (0 0 0) to (25 25 25)
  2 by 2 by 4 processor grid

create_atoms	1 region liq_init
Created 13500 atoms

mass		1 ${mass}
mass		1 1

# LJ potentials
pair_style	lj/cut ${r_cutoff}
pair_style	lj/cut 4
pair_coeff	* * 1.0 1.0 ${r_cutoff}
pair_coeff	* * 1.0 1.0 4

########### computes and fixes ##################################

#compute coord_a all coord/atom ${r_cutoff}
#compute ke all ke/atom 
#compute epair all pe/atom
#compute stress all stress/atom

### only needed if not restarting ###
velocity     all create ${t_init} 482778 dist gaussian
velocity     all create 1 482778 dist gaussian

fix 1 all nve
fix 2 all temp/rescale 100 ${t_init} ${t_final} 0.01 1.0
fix 2 all temp/rescale 100 1 ${t_final} 0.01 1.0
fix 2 all temp/rescale 100 1 0.709515 0.01 1.0

fix 3 all rdf 500 ${pwd}/rdf_from_beginning.dat 100 1 1
fix 3 all rdf 500 /home/dtlussier/rdfval2/rdf_from_beginning.dat 100 1 1

# THis is for newer version of LAMMPS
# compute myRDF all rdf 100
# fix 2 all ave/time 100 1 100 c_myRDF file tmp.rdf mode vector 



###################### EQULIBRATION ###############################################

timestep		${time_step}
timestep		0.005
thermo_style	custom step temp press pe ke etotal enthalpy epair vol pxx pyy pzz pxy pxz pyz xlo xhi ylo yhi zlo zhi
thermo			${thermo_freq}
thermo			1000

# creates dumps directory - so DO NOT MAKE BEFORE
shell			mkdir ${pwd}/dumps
shell			mkdir /home/dtlussier/rdfval2/dumps
dump			mydump all custom ${dump_freq_equil} ${pwd}/dumps/dump_argon_state_${job_name}_*.out id type mass x y z ix iy iz xs ys zs xu yu zu vx vy vz fx fy fz
dump			mydump all custom 10000 ${pwd}/dumps/dump_argon_state_${job_name}_*.out id type mass x y z ix iy iz xs ys zs xu yu zu vx vy vz fx fy fz
dump			mydump all custom 10000 /home/dtlussier/rdfval2/dumps/dump_argon_state_${job_name}_*.out id type mass x y z ix iy iz xs ys zs xu yu zu vx vy vz fx fy fz
dump			mydump all custom 10000 /home/dtlussier/rdfval2/dumps/dump_argon_state_rdfval2_*.out id type mass x y z ix iy iz xs ys zs xu yu zu vx vy vz fx fy fz

minimize 1.0e-4 1.0e-6 1000 100000
Memory usage per processor = 3.30676 Mbytes
Step Temp Press PotEng KinEng TotEng Enthalpy E_pair Volume Pxx Pyy Pzz Pxy Pxz Pyz Xlo Xhi Ylo Yhi Zlo Zhi 
       0            1   -3.9613314   -6.9045944    1.4998889   -5.4047056   -9.9895799   -6.9045944        15625   -3.9715287   -3.9583432   -3.9541224 -0.0071580361 0.0021962391 -0.003032285            0           25            0           25            0           25 
       9            1   -5.8275589    -7.287962    1.4998889   -5.7880731   -12.532933    -7.287962        15625   -5.8377561   -5.8245707   -5.8203498 -0.0071580361 0.0021962391 -0.003032285            0           25            0           25            0           25 
Loop time of 0.382264 on 16 procs for 9 steps with 13500 atoms

Minimization stats:
  Stopping criterion = energy tolerance
  Energy initial, next-to-last, final = 
        -6.90459444953     -7.28787959878     -7.28796199062
  Force two-norm initial, final = 5697.99 65.2701
  Force max component initial, final = 525.454 6.89137
  Final line search alpha, max atom move = 0.0005734 0.00395151
  Iterations, force evaluations = 9 25

Pair  time (%) = 0.143857 (37.6329)
Neigh time (%) = 0 (0)
Comm  time (%) = 0.0749484 (19.6065)
Outpt time (%) = 0 (0)
Other time (%) = 0.163458 (42.7606)

Nlocal:    843.75 ave 900 max 787 min
Histogram: 8 0 0 0 0 0 0 0 0 8
Nghost:    6264 ave 6390 max 6138 min
Histogram: 8 0 0 0 0 0 0 0 0 8
Neighs:    189608 ave 195474 max 178227 min
Histogram: 3 1 0 0 0 0 1 2 5 4

Total # of neighbors = 3033732
Ave neighs/atom = 224.721
Neighbor list builds = 0
Dangerous builds = 0

run	 ${equil_ts} upto
run	 500000 upto
Memory usage per processor = 2.62011 Mbytes
Step Temp Press PotEng KinEng TotEng Enthalpy E_pair Volume Pxx Pyy Pzz Pxy Pxz Pyz Xlo Xhi Ylo Yhi Zlo Zhi 
       9            1   -5.8275589    -7.287962    1.4998889   -5.7880731   -12.532933    -7.287962        15625   -5.8377561   -5.8245707   -5.8203498 -0.0071580361 0.0021962391 -0.003032285            0           25            0           25            0           25 
    1000   0.99103822    2.3252693   -5.8022448    1.4864472   -4.3157976   -1.6245137   -5.8022448        15625     2.363993    2.3454749      2.26634 0.00017281587  0.078157144   0.06178631            0           25            0           25            0           25 
    2000   0.99802487    2.4594361   -5.7776816    1.4969264   -4.2807552   -1.4341857   -5.7776816        15625    2.5215551    2.4162789    2.4404742  -0.02603521  0.028738535   0.01893361            0           25            0           25            0           25 
    3000   0.99189194    2.5088262   -5.7684913    1.4877277   -4.2807636   -1.3770295   -5.7684913        15625     2.479392     2.541827    2.5052597 -0.048398391  0.028305206  0.024767843            0           25            0           25            0           25 
    4000    1.0060889    2.5137685   -5.7708271    1.5090216   -4.2618055   -1.3523513   -5.7708271        15625    2.4339178    2.5288413    2.5785463   0.03299035 0.0022206089 0.0044618855            0           25            0           25            0           25 
    5000   0.99611017    2.4790193   -5.7729783    1.4940546   -4.2789237   -1.4096885   -5.7729783        15625    2.4734417    2.4794784    2.4841376 -0.083496125 -0.0014116983 -0.036719683            0           25            0           25            0           25 
    6000   0.99169773    2.4445524    -5.781856    1.4874364   -4.2944196   -1.4650766    -5.781856        15625    2.5417593    2.3930167    2.3988813 -0.093171311 -0.067885571 -0.080907909            0           25            0           25            0           25 
    7000    0.9948035    2.3999565   -5.7865323    1.4920947   -4.2944376   -1.5167102   -5.7865323        15625    2.4499334     2.386614    2.3633219 -0.026143961 -0.019485411  0.042660229            0           25            0           25            0           25 
    8000   0.99405812    2.4960446   -5.7703061    1.4909767   -4.2793294   -1.3903889   -5.7703061        15625    2.5267197    2.4411141       2.5203  0.064210087  0.030540779   0.05346542            0           25            0           25            0           25 
    9000   0.98717038    2.4536018   -5.7755033    1.4806459   -4.2948574   -1.4550405   -5.7755033        15625    2.3955828    2.4385565    2.5266662 -0.0011404294  0.060247966 -0.076844674            0           25            0           25            0           25 
   10000   0.99671022     2.427133   -5.7839594    1.4949546   -4.2890048    -1.479823   -5.7839594        15625    2.4699255    2.3377688    2.4737048  -0.06537366  0.030592636 -0.038211519            0           25            0           25            0           25 
   11000   0.99034606    2.3666443   -5.7900345    1.4854091   -4.3046254   -1.5654538   -5.7900345        15625    2.3026393    2.3722598    2.4250337 0.0052569991 -0.036013412  0.016448826            0           25            0           25            0           25 
   12000    0.9909899    2.4115124   -5.7862517    1.4863747    -4.299877   -1.5087747   -5.7862517        15625    2.3626394    2.4900003    2.3818974  0.059813383 -0.037308221  0.056855093            0           25            0           25            0           25 
   13000   0.99347534    2.3868445   -5.7899203    1.4901026   -4.2998177   -1.5372662   -5.7899203        15625    2.3962342    2.4270942    2.3372051 -0.021476398 -0.087025583 -0.048065283            0           25            0           25            0           25 
   14000   0.98491594    2.4561246   -5.7770217    1.4772645   -4.2997573   -1.4570204   -5.7770217        15625    2.4163704    2.4920778    2.4599256 -0.036867322 -0.034906642 -0.054041874            0           25            0           25            0           25 
   15000   0.99199019     2.401802   -5.7877529    1.4878751   -4.2998779   -1.5200145   -5.7877529        15625    2.3493126    2.3276054    2.5284879  0.033835153 -0.0045948384 -0.038239897            0           25            0           25            0           25 
   16000   0.99237319    2.4156974   -5.7858697    1.4884495   -4.2974202   -1.5014742   -5.7858697        15625    2.3895045    2.4737552    2.3838323 -0.010253522 -0.020996335  0.047238238            0           25            0           25            0           25 
   17000   0.99132771    2.3606637   -5.7998015    1.4868814   -4.3129201   -1.5806704   -5.7998015        15625    2.3458645    2.4319913    2.3041352 -0.040946114 0.0013039347 -0.030096989            0           25            0           25            0           25 
   18000     0.994253    2.3999407   -5.7878568     1.491269   -4.2965877   -1.5188786   -5.7878568        15625    2.4194281    2.4191412    2.3612527 -0.012141784 -0.023705865    -0.035799            0           25            0           25            0           25 
   19000    0.9889666    2.3664712   -5.7952442      1.48334   -4.3119042   -1.5729329   -5.7952442        15625    2.4485313    2.3446059    2.3062764  0.088230867 -0.067969889  0.029917896            0           25            0           25            0           25 
   20000   0.98714876    2.3749962   -5.7925349    1.4806135   -4.3119214   -1.5630833   -5.7925349        15625    2.2402463    2.4601302    2.4246121  0.061315659  0.050001035 -0.025893734            0           25            0           25            0           25 
   21000   0.99713106    2.4011675   -5.7882164    1.4955858   -4.2926306   -1.5135015   -5.7882164        15625     2.324683    2.4335056    2.4453139  0.029678052 -0.042974881  0.056223239            0           25            0           25            0           25 
   22000    0.9910506    2.3447852   -5.7982714    1.4864658   -4.3118056   -1.5979338   -5.7982714        15625    2.4133423     2.255416    2.3655974 -0.043900836  0.062771809   0.02507038            0           25            0           25            0           25 
   23000   0.98612856    2.3841349   -5.7908812    1.4790833   -4.3117979   -1.5523826   -5.7908812        15625    2.3481115    2.3963289    2.4079642 -0.059921108 -0.0031535542 0.0070264265            0           25            0           25            0           25 
   24000    0.9860617    2.3155414     -5.80587     1.478983    -4.326887   -1.6468622     -5.80587        15625    2.2004621    2.4169538    2.3292083 -0.022772026 -0.017290936 -0.018811764            0           25            0           25            0           25 
   25000   0.97991746    2.4428334   -5.7807023    1.4697673    -4.310935   -1.4835816   -5.7807023        15625    2.4120265    2.3985218    2.5179519 0.0083690867 0.0023214951  0.037731903            0           25            0           25            0           25 
   26000   0.98480626    2.4013415   -5.7881323       1.4771   -4.3110324   -1.5317019   -5.7881323        15625    2.4451765    2.3946873    2.3641608 -0.050779413 -0.067928619 -0.016517022            0           25            0           25            0           25 
   27000   0.98813285    2.3813582   -5.7924298    1.4820895   -4.3103403   -1.5541387   -5.7924298        15625    2.3795911    2.4590727    2.3054107 -0.034018663  0.063064594  0.065986191            0           25            0           25            0           25 
   28000   0.98227522    2.3369948   -5.7996634    1.4733037   -4.3263597   -1.6215046   -5.7996634        15625    2.2788173    2.3613912     2.370776 -0.061054366 -0.039433181  0.027739026            0           25            0           25            0           25 
   29000    0.9756937    2.3926943   -5.7897953    1.4634321   -4.3263631    -1.557041   -5.7897953        15625    2.4451274    2.3025657    2.4303899 -0.054814191 -0.016671839 -0.011234222            0           25            0           25            0           25 
   30000   0.98874271    2.2922709    -5.809323    1.4830042   -4.3263188   -1.6732274    -5.809323        15625    2.2896793    2.3016764    2.2854571 -0.025124157 0.0052746639  0.029221392            0           25            0           25            0           25 
   31000   0.97611012    2.3633635   -5.7903681    1.4640567   -4.3263114    -1.590937   -5.7903681        15625    2.3490424    2.3478999    2.3931482 -0.016653675 0.0070627374  0.037733647            0           25            0           25            0           25 
   32000   0.98400527    2.3585681   -5.8000476    1.4758986   -4.3241491   -1.5943249   -5.8000476        15625    2.3059262    2.3601061    2.4096721  0.033478801  -0.11139066 -0.013822824            0           25            0           25            0           25 
   33000   0.98221481    2.3709781   -5.7973778    1.4732131   -4.3241647    -1.579977   -5.7973778        15625    2.2874981    2.3731914    2.4522449  0.031599514 -0.0050092486 -0.0068103904            0           25            0           25            0           25 
   34000   0.97073563    2.3558739   -5.7954079    1.4559956   -4.3394123   -1.6127063   -5.7954079        15625    2.3112523    2.3866145    2.3697551 -0.086786758   0.01934613 -0.029045093            0           25            0           25            0           25 
   35000   0.97741282     2.313699   -5.8054102    1.4660106   -4.3393995   -1.6615072   -5.8054102        15625    2.2739974     2.304488    2.3626116  0.044090519  0.097047433  -0.14513328            0           25            0           25            0           25 
   36000   0.97419063    2.4091304   -5.7848002    1.4611777   -4.3236225   -1.5352772   -5.7848002        15625    2.3920146    2.4135046     2.421872 0.0040578901    0.0380722 -0.038837493            0           25            0           25            0           25 
   37000   0.97774501    2.3134727   -5.8058493    1.4665089   -4.3393404     -1.66171   -5.8058493        15625    2.3953385    2.2834813    2.2615982  0.030404868  0.010031253  0.033422762            0           25            0           25            0           25 
   38000   0.98259879    2.3717323   -5.7948746     1.473789   -4.3210856   -1.5760251   -5.7948746        15625    2.3705754    2.3085013    2.4361201  0.034964801  -0.00829812 -0.078719437            0           25            0           25            0           25 
   39000   0.98020342    2.3087105   -5.8074308    1.4701962   -4.3372346    -1.665116   -5.8074308        15625    2.3113758    2.2484667     2.366289 -0.0046112651  0.037220487  0.032551998            0           25            0           25            0           25 
   40000    0.9731226    2.3271794   -5.7967709    1.4595758   -4.3371951   -1.6437005   -5.7967709        15625    2.3709339    2.2804538    2.3301504 -0.044748656 -0.00078028963   0.06376124            0           25            0           25            0           25 
   41000   0.97586231    2.3183886    -5.800956     1.463685    -4.337271   -1.6539509    -5.800956        15625     2.286373    2.3669484    2.3018443  0.017245569 -0.050991055 -0.010832153            0           25            0           25            0           25 
   42000   0.97588508    2.3219949   -5.8009388    1.4637192   -4.3372196   -1.6497256   -5.8009388        15625    2.3264459    2.3875101    2.2520286 -0.033289639 -0.046291478  0.028794698            0           25            0           25            0           25 
   43000    0.9709195    2.3670604   -5.7934454    1.4562714    -4.337174   -1.5975207   -5.7934454        15625    2.3560739    2.3110188    2.4340885 -0.023052784  0.024697692 -0.038153308            0           25            0           25            0           25 
   44000   0.97840433      2.30685   -5.8046697    1.4674978    -4.337172   -1.6672067   -5.8046697        15625    2.2626241    2.3161621    2.3417638  0.028624337 -0.072107309 -0.041880094            0           25            0           25            0           25 
   45000    0.9827611    2.2567764    -5.811208    1.4740324   -4.3371756   -1.7251659    -5.811208        15625     2.262453    2.2543124    2.2535637 -0.014725991  0.012009631 -0.032252687            0           25            0           25            0           25 
   46000   0.97008648    2.2908259   -5.8083384    1.4550219   -4.3533165   -1.7018976   -5.8083384        15625    2.3039693    2.2850111    2.2834972  0.032363839   0.02673795  0.045259745            0           25            0           25            0           25 
   47000   0.97380192    2.2768109    -5.813938    1.4605947   -4.3533433   -1.7181455    -5.813938        15625    2.2205108    2.2601248    2.3497971 -0.034337493 -0.017758697  0.040655729            0           25            0           25            0           25 
   48000   0.97774884     2.249123   -5.8198734    1.4665146   -4.3533588   -1.7502071   -5.8198734        15625    2.2345328    2.3306067    2.1822295  0.037043091 -0.017278245 -0.0065221397            0           25            0           25            0           25 
   49000   0.96876094    2.3891692   -5.7891041    1.4530338   -4.3360703   -1.5708282   -5.7891041        15625    2.4051735    2.3719842    2.3903499  -0.06853284 -0.060385764 -0.038422035            0           25            0           25            0           25 
   50000   0.96689972    2.3076384   -5.8026728    1.4502421   -4.3524307   -1.6815529   -5.8026728        15625    2.2471412    2.3382285    2.3375454 -0.033514976  0.012281466  0.020445666            0           25            0           25            0           25 
   51000   0.96667872    2.3133285   -5.8023772    1.4499107   -4.3524665    -1.675003   -5.8023772        15625     2.269683    2.3076068    2.3626956  0.063531876 -0.017304314 -0.056824525            0           25            0           25            0           25 
   52000   0.97307689    2.2666597   -5.8119588    1.4595072   -4.3524516   -1.7290029   -5.8119588        15625    2.2630605    2.1818448    2.3550737 -0.067778937   0.05365859 -0.045629164            0           25            0           25            0           25 
   53000   0.97808834     2.237835   -5.8195207    1.4670238   -4.3524969   -1.7624101   -5.8195207        15625    2.1920371    2.2369312    2.2845367 -0.043712628 -0.034331281 -0.0069620874            0           25            0           25            0           25 
   54000   0.96326968    2.3355314   -5.7972368    1.4447975   -4.3524394    -1.649278   -5.7972368        15625    2.3025506    2.3835404    2.3205033 -0.0026896783  0.029221352 -0.083499113            0           25            0           25            0           25 
   55000   0.96963586    2.1772775    -5.829214    1.4543461    -4.374868   -1.8548709    -5.829214        15625    2.1434515    2.1960254    2.1923555 -0.020641607 -0.0091135727 0.0034466394            0           25            0           25            0           25 
   56000   0.97689506    2.2191791   -5.8214327     1.465234   -4.3561986   -1.7877043   -5.8214327        15625    2.3064629    2.2137571    2.1373172 -0.0070285215 -0.019221883  0.044932855            0           25            0           25            0           25 
   57000   0.96688934    2.3048615   -5.8037941    1.4502266   -4.3535675   -1.6859037   -5.8037941        15625    2.3408123     2.247895    2.3258772  0.012785744 -0.020747561  0.058306042            0           25            0           25            0           25 
   58000   0.96938719    2.2988562   -5.8031039    1.4539731   -4.3491308   -1.6884177   -5.8031039        15625    2.4006399    2.2708279    2.2251008  0.031319101 -0.0034703185 -0.010220364            0           25            0           25            0           25 
   59000   0.96936187    2.3029415   -5.8046377    1.4539351   -4.3507026   -1.6852611   -5.8046377        15625     2.293455    2.2865316    2.3288379  0.029898675 -0.028446396  0.069362777            0           25            0           25            0           25 
   60000   0.96450268     2.255824   -5.8157652    1.4466468   -4.3691184    -1.758211   -5.8157652        15625    2.2750511    2.3389777     2.153443 -0.067208614 -0.053241507   0.03945796            0           25            0           25            0           25 
   61000   0.96794632    2.2092124    -5.820988    1.4518119   -4.3691761   -1.8122173    -5.820988        15625    2.2956107    2.1705366    2.1614899  0.028843481  0.015247531 -0.062236482            0           25            0           25            0           25 
   62000   0.96818475    2.2249874   -5.8213268    1.4521695   -4.3691573   -1.7939404   -5.8213268        15625    2.1463298    2.2128783    2.3157542  0.054704187 0.0098835529   0.02636272            0           25            0           25            0           25 
   63000   0.97195745    2.1909991     -5.82703    1.4578282   -4.3692019   -1.8333232     -5.82703        15625    2.2534755    2.1249008    2.1946211 -0.044812981 -0.0057185874  0.018246579            0           25            0           25            0           25 
   64000   0.96777296    2.2038809   -5.8219211    1.4515519   -4.3703692   -1.8195811   -5.8219211        15625    2.1672788    2.2936625    2.1507013 -0.0037376423 -0.051416064 -0.088680114            0           25            0           25            0           25 
   65000    0.9586589    2.2826155   -5.8082156    1.4378818   -4.3703338   -1.7284177   -5.8082156        15625    2.1656065    2.3379581    2.3442818  0.020424097  0.031220014   0.11927327            0           25            0           25            0           25 
   66000   0.96913269    2.1990841    -5.824018    1.4535913   -4.3704267   -1.8251904    -5.824018        15625    2.1769745    2.2032886    2.2169893 -0.056356339  0.040374512  0.042434802            0           25            0           25            0           25 
   67000   0.95832726    2.2848581   -5.8076986    1.4373844   -4.3703142   -1.7258024   -5.8076986        15625    2.2999114     2.221661    2.3330021 0.0095095621 -0.0014543265 -0.030724301            0           25            0           25            0           25 
   68000   0.96240042    2.2617284   -5.8138539    1.4434937   -4.3703602    -1.752619   -5.8138539        15625    2.2389111    2.2455598    2.3007142  0.036316807 -0.0043922112 0.0076693846            0           25            0           25            0           25 
   69000   0.95481333    2.2212959   -5.8177574    1.4321139   -4.3856435   -1.8146991   -5.8177574        15625    2.2997293    2.2249707    2.1391877  0.059160928 -0.022477928 -0.049470076            0           25            0           25            0           25 
   70000   0.96213021    2.1870009   -5.8287226    1.4430884   -4.3856342   -1.8543832   -5.8287226        15625    2.1745458    2.2063853    2.1800715 -0.039710324 -0.039246967  0.018686747            0           25            0           25            0           25 
   71000   0.95555984    2.2096322   -5.8188269    1.4332336   -4.3855934   -1.8281487   -5.8188269        15625      2.22535    2.1581256    2.2454211  0.016021408  0.050908718  0.019704413            0           25            0           25            0           25 
   72000   0.96330075    2.1690071   -5.8305146    1.4448441   -4.3856705   -1.8752456   -5.8305146        15625    2.1873747    2.1935801    2.1260664  0.013585831  0.021680145 0.0092777867            0           25            0           25            0           25 
   73000   0.96134471    2.1864057   -5.8275068    1.4419102   -4.3855965   -1.8550344   -5.8275068        15625    2.1155732    2.1838875    2.2597562 -0.028238169  0.033255795 0.0095567914            0           25            0           25            0           25 
   74000   0.95653935    2.2187304    -5.820315    1.4347027   -4.3856123   -1.8176373    -5.820315        15625    2.1798387    2.2307301    2.2456223 -0.019322238 -0.0029028419 -0.049657517            0           25            0           25            0           25 
   75000   0.96172875    2.2672308   -5.8113126    1.4424863   -4.3688264   -1.7447167   -5.8113126        15625    2.2625574    2.2629371    2.2761978  0.038763197  -0.07383077  -0.04315672            0           25            0           25            0           25 
   76000   0.96008422    2.2051256   -5.8287199    1.4400197   -4.3887003   -1.8364716   -5.8287199        15625    2.2122788     2.247259    2.1558388 -0.030978134  0.022203849  0.039784363            0           25            0           25            0           25 
   77000   0.95459474    2.2252188   -5.8205277     1.431786   -4.3887417    -1.813257   -5.8205277        15625    2.2995768    2.1253745    2.2507051    0.0643388  0.053433507 -0.023107353            0           25            0           25            0           25 
   78000    0.9529614    2.1567652   -5.8340023    1.4293362   -4.4046661   -1.9084101   -5.8340023        15625    2.1996168    2.1328735    2.1378052  0.076763228 0.0089117474 -0.068864386            0           25            0           25            0           25 
   79000   0.95220002    2.2501768   -5.8142317    1.4281942   -4.3860375   -1.7816662   -5.8142317        15625    2.2081339     2.324546    2.2178504  0.013096038 -0.0092696375 -5.9773499e-05            0           25            0           25            0           25 
   80000   0.94874796    2.2025088   -5.8262765    1.4230165   -4.4032599   -1.8540599   -5.8262765        15625    2.1739432    2.1990464    2.2345369  0.023874774 -0.017450224 -0.012504141            0           25            0           25            0           25 
   81000   0.95294581    2.0969061   -5.8419469    1.4293128   -4.4126341   -1.9856595   -5.8419469        15625    2.1287832    2.0793042    2.0826308  0.014498165 -0.039198241  0.029504081            0           25            0           25            0           25 
   82000   0.94800598    2.2563076   -5.8127504    1.4219036   -4.3908467   -1.7793796   -5.8127504        15625    2.2103127    2.3065202    2.2520899   0.01839325  0.060849861 -0.0017177037            0           25            0           25            0           25 
   83000   0.95159057    2.2146505    -5.818105    1.4272801   -4.3908249    -1.827572    -5.818105        15625    2.2629287    2.0889908     2.292032 -0.0040556316  0.066348931  0.017774201            0           25            0           25            0           25 
   84000   0.94625891    2.1448123   -5.8311787    1.4192832   -4.4118955   -1.9294739   -5.8311787        15625    2.1465359    2.2154508    2.0724502  0.020176673 -0.009705104  -0.01382965            0           25            0           25            0           25 
   85000   0.94789076    2.1494891    -5.833659    1.4217308   -4.4119282   -1.9240935    -5.833659        15625    2.1886622    2.1972248    2.0625804  0.032259993  0.039293321  0.046998457            0           25            0           25            0           25 
   86000   0.94649133    2.2359003   -5.8145648    1.4196318    -4.394933   -1.8070854   -5.8145648        15625    2.2870524    2.2838698    2.1367787 -0.048642686 -0.010039547 -0.037407355            0           25            0           25            0           25 
   87000   0.94945993    2.1341346   -5.8344615    1.4240844   -4.4103771   -1.9403139   -5.8344615        15625    2.0971325    2.0776448    2.2276265  0.017000791  0.045180483 -0.047110212            0           25            0           25            0           25 
   88000   0.94887895    2.2064174   -5.8241309     1.423213   -4.4009179   -1.8471941   -5.8241309        15625    2.1690881    2.1671621     2.283002 0.0068829117 -0.053814188 -0.031251258            0           25            0           25            0           25 
   89000   0.94399059    2.1447611   -5.8352111     1.415881   -4.4193301   -1.9369677   -5.8352111        15625    2.0784062    2.1098109    2.2460662 -0.018809114 -0.042575634 -0.029575028            0           25            0           25            0           25 
   90000   0.94065412    2.2246765   -5.8141753    1.4108767   -4.4032986   -1.8284415   -5.8141753        15625    2.3034462    2.1986349    2.1719485  0.049186249  0.009942889 -0.039130747            0           25            0           25            0           25 
   91000   0.95071535    2.1606509   -5.8292998    1.4259674   -4.4033324    -1.902579   -5.8292998        15625    2.1164101    2.2539357     2.111607 -0.0011540039 -0.064720242 -0.0098691803            0           25            0           25            0           25 
   92000   0.95407776    2.1509221   -5.8344005    1.4310106   -4.4033899   -1.9138967   -5.8344005        15625    2.2018014    2.1398581    2.1111067   0.10556385 -0.037299236 -0.036691983            0           25            0           25            0           25 
   93000   0.94734244    2.1145091   -5.8409038    1.4209084   -4.4199954    -1.972647   -5.8409038        15625    2.1117537    2.1112685     2.120505 -0.0061636616 0.00034170665   0.10621686            0           25            0           25            0           25 
   94000   0.93922474    2.1550512   -5.8286613    1.4087327   -4.4199286   -1.9256563   -5.8286613        15625    2.1585631    2.1002553    2.2063353  0.024154867 0.0094059723 -0.0031411519            0           25            0           25            0           25 
   95000   0.94893779     2.086333   -5.8432811    1.4233013   -4.4199799   -2.0052425   -5.8432811        15625    2.1378872    2.1391341    1.9819779  0.031098767 -0.018199365 -0.068866251            0           25            0           25            0           25 
   96000   0.94306646     2.144303   -5.8345071    1.4144949   -4.4200122   -1.9381799   -5.8345071        15625    2.1381524    2.1702895    2.1244672 -0.00036930792  0.032080726 -0.038954399            0           25            0           25            0           25 
   97000   0.94606409    2.1158571   -5.8390316     1.418991   -4.4200406   -1.9711319   -5.8390316        15625    2.1785491    2.1486355    2.0203866  0.082493565 -0.0013867291 -0.025761509            0           25            0           25            0           25 
   98000   0.93861585    2.1610326   -5.8277499    1.4078195   -4.4199304   -1.9187352   -5.8277499        15625    2.1375857    2.1871977    2.1583145  -0.01248509  0.044420676   -0.0422105            0           25            0           25            0           25 
   99000   0.93676343    2.1795489   -5.8249502    1.4050411   -4.4199091   -1.8972831   -5.8249502        15625    2.1386015     2.214175    2.1858704 -0.040068212  0.020514255  0.075505767            0           25            0           25            0           25 
  100000   0.93432357    2.1017641   -5.8380361    1.4013815   -4.4366546   -2.0040573   -5.8380361        15625    2.1277144    2.0796478      2.09793  -0.01716248 -0.025989614 -0.035993948            0           25            0           25            0           25 
  101000   0.94195587     2.142826   -5.8321314    1.4128291   -4.4193023   -1.9391797   -5.8321314        15625    2.1882022    2.1258614    2.1144143 -0.029278822 -0.065195768  0.038077878            0           25            0           25            0           25 
  102000   0.93683339    2.0985209   -5.8406518     1.405146   -4.4355058   -2.0066622   -5.8406518        15625    2.0578282    2.1406551    2.0970793 -0.0027337701   -0.0453192 -0.057743633            0           25            0           25            0           25 
  103000   0.93318657    2.1242235   -5.8352481    1.3996762   -4.4355719   -1.9769799   -5.8352481        15625    2.1254224    2.0779133    2.1693348 -0.041281391 -0.010730605 -0.030480394            0           25            0           25            0           25 
  104000   0.93071673    2.2131258   -5.8155822    1.3959717   -4.4196106   -1.8581223   -5.8155822        15625    2.1823273     2.167677    2.2893732 -0.028470636  0.015421848 -0.036818797            0           25            0           25            0           25 
  105000   0.93804007    2.0600781   -5.8448284    1.4069559   -4.4378725   -2.0535229   -5.8448284        15625    1.9765258    2.0902631    2.1134453  0.054780169 -0.027633117 0.00060057568            0           25            0           25            0           25 
  106000   0.93375221     2.135711   -5.8384165    1.4005246    -4.437892   -1.9660042   -5.8384165        15625    2.1698524     2.086535    2.1507455  0.015549031  0.027156644 0.0093000032            0           25            0           25            0           25 
  107000    0.9296914    2.1376075   -5.8322753    1.3944338   -4.4378415   -1.9637588   -5.8322753        15625    2.1841878    2.1592366    2.0693981 0.0010019389  -0.04541662 -0.040715814            0           25            0           25            0           25 
  108000   0.93051301    2.1200043   -5.8335545    1.3956661   -4.4378883   -1.9841796   -5.8335545        15625    2.2286052    2.0447794    2.0866284  0.048989218 -0.028284112 0.0098734605            0           25            0           25            0           25 
  109000   0.93381698    2.1016723   -5.8384446    1.4006217   -4.4378229   -2.0053318   -5.8384446        15625    2.0398405    2.0795581    2.1856183   -0.1260793  0.065626652 -0.029637412            0           25            0           25            0           25 
  110000   0.94294877    2.0286215   -5.8558904    1.4143184    -4.441572   -2.0936304   -5.8558904        15625    2.0077932    1.9632712    2.1148002   -0.0054579  0.038412276  0.013242202            0           25            0           25            0           25 
  111000    0.9301471    2.1062027   -5.8365984    1.3951173   -4.4414811   -2.0037465   -5.8365984        15625    2.1420017    2.0833087    2.0932977  0.017187393 0.0011534638  0.041678244            0           25            0           25            0           25 
  112000   0.92888045    2.1198519   -5.8347505    1.3932175    -4.441533   -1.9880008   -5.8347505        15625    2.1048297    2.1391112    2.1156146 -0.0069977102  0.035426496 -0.014915131            0           25            0           25            0           25 
  113000   0.93435444     2.092088   -5.8436556    1.4014278   -4.4422277   -2.0208296   -5.8436556        15625    2.1207097    2.0178676    2.1376867 0.0043504636 -0.0084519713  0.030234499            0           25            0           25            0           25 
  114000   0.94159399    2.0345168   -5.8545346    1.4122864   -4.4422482   -2.0874834   -5.8545346        15625     2.012512    2.0245071    2.0665314  0.029292355  0.052011581   0.11067961            0           25            0           25            0           25 
  115000   0.93237941    2.0989177   -5.8407075    1.3984655   -4.4422419    -2.012939   -5.8407075        15625    2.1493492    2.1273312    2.0200728  -0.02243731 -0.042266749  0.076164393            0           25            0           25            0           25 
  116000   0.92628737    2.0451402   -5.8503328    1.3893281   -4.4610046   -2.0939442   -5.8503328        15625    2.0938545    1.9667397    2.0748265  0.027083065  0.025237238 -0.036796836            0           25            0           25            0           25 
  117000   0.92668202    2.1208282   -5.8336321    1.3899201    -4.443712   -1.9890498   -5.8336321        15625    2.1271803     2.076438    2.1588662 -0.014671155 -0.0040319167   0.10714226            0           25            0           25            0           25 
  118000   0.92504234    2.0326284   -5.8485343    1.3874607   -4.4610735   -2.1084944   -5.8485343        15625    2.0032327    2.1047552    1.9898972  0.061992328  -0.03275378  0.012030931            0           25            0           25            0           25 
  119000   0.92687886    2.1276051   -5.8343967    1.3902153   -4.4441814   -1.9816755   -5.8343967        15625    2.1081346    2.2001171    2.0745637  0.056844965  0.076831221  0.033185906            0           25            0           25            0           25 
  120000   0.93028757    2.0726744   -5.8427867     1.395328   -4.4474587     -2.04853   -5.8427867        15625    2.1050915    1.9839053    2.1290264  0.014910388 -0.0016000472  0.013313487            0           25            0           25            0           25 
  121000   0.93572946    2.0582481   -5.8510276    1.4034902   -4.4475374   -2.0653058   -5.8510276        15625    1.9539853    2.0900146    2.1307445 -0.0020896976 -0.027028939  0.017433265            0           25            0           25            0           25 
  122000   0.92685053    2.1091981   -5.8377228    1.3901728     -4.44755   -2.0063486   -5.8377228        15625    2.0717232    2.1313063    2.1245648 0.0037329319  0.039669899  0.033177237            0           25            0           25            0           25 
  123000   0.92411459    2.0684338   -5.8487221    1.3860692   -4.4626529   -2.0686322   -5.8487221        15625    2.0558119    2.0630173    2.0864723  -0.00517209 -0.025972424 -0.013116516            0           25            0           25            0           25 
  124000   0.92362862    2.0618104   -5.8479935    1.3853403   -4.4626532   -2.0762986   -5.8479935        15625    2.0875152    2.0451132    2.0528027 0.0050393996 -0.059903881  -0.10975413            0           25            0           25            0           25 
  125000   0.92150853    2.0646265   -5.8448311    1.3821604   -4.4626707   -2.0730567   -5.8448311        15625    1.9881906     2.165843    2.0398459  0.007195218  0.054567097 0.0090185115            0           25            0           25            0           25 
  126000   0.92831473    2.0328482   -5.8550186    1.3923689   -4.4626497    -2.109816   -5.8550186        15625    2.0675075     2.006491    2.0245462  0.021337238  0.013367615 -0.039007227            0           25            0           25            0           25 
  127000   0.92567392     2.054204   -5.8510712     1.388408   -4.4626632   -2.0851123   -5.8510712        15625    2.0315102     2.060748    2.0703536  0.074516259  -0.01929122  0.050366395            0           25            0           25            0           25 
  128000   0.91887943    2.0706866   -5.8408708    1.3782171   -4.4626537   -2.0660258   -5.8408708        15625    2.0678048    2.0376409     2.106614 -0.055002734 0.00026142348 -0.018231832            0           25            0           25            0           25 
  129000   0.92540707     2.051633   -5.8507227    1.3880078   -4.4627149   -2.0881397   -5.8507227        15625    2.0962314    2.0115282    2.0471393  0.049632567  0.056668016  0.055629468            0           25            0           25            0           25 
  130000   0.92086689    2.0602629   -5.8438518     1.381198   -4.4626538   -2.0780903   -5.8438518        15625    1.9055974    2.0953741    2.1798172  0.078519417  0.045078846 0.00031241077            0           25            0           25            0           25 
  131000   0.92937821    2.0143916   -5.8566494     1.393964   -4.4626853   -2.1312135   -5.8566494        15625     2.024943    1.9434094    2.0748225 -0.030526103 -0.057033095 -0.0064000866            0           25            0           25            0           25 
  132000   0.93177513    1.9206562   -5.8758371    1.3975592   -4.4782779   -2.2552963   -5.8758371        15625    1.9636022    1.9436681    1.8546982  0.041353733  0.024800046 -0.0074971444            0           25            0           25            0           25 
  133000   0.91873515    2.0131214   -5.8562668    1.3780006   -4.4782661   -2.1482645   -5.8562668        15625    2.0249154    1.9353599    2.0790889 -0.020571502  0.011483593 -0.013025401            0           25            0           25            0           25 
  134000   0.92792031    2.0104983   -5.8605395    1.3917774   -4.4687621   -2.1417965   -5.8605395        15625    2.0464064    2.0186703    1.9664183 -0.021501968 -0.033529714 -0.049575422            0           25            0           25            0           25 
  135000   0.92410711    2.0799203   -5.8394269     1.386058   -4.4533689   -2.0460538   -5.8394269        15625    2.0826758    2.1196637    2.0374212 -0.0045819159  0.049188451 -0.012483386            0           25            0           25            0           25 
  136000   0.91913386    1.9946434   -5.8596626    1.3785987   -4.4810639   -2.1724488   -5.8596626        15625     1.946969    2.0144571    2.0225042 -0.0089198933  0.037090343 0.0070357497            0           25            0           25            0           25 
  137000   0.92052673     1.994833   -5.8617469    1.3806878    -4.481059   -2.1722245   -5.8617469        15625    1.9865185    2.0282071    1.9697735 -0.040744463   -0.0269516 -0.011346049            0           25            0           25            0           25 
  138000     0.911451    1.9686184   -5.8642756    1.3670752   -4.4972004   -2.2187069   -5.8642756        15625     1.996132    1.9691428    1.9405804 0.0029385206  -0.06294377  -0.10469205            0           25            0           25            0           25 
  139000   0.91924895     1.995256   -5.8599535    1.3787713   -4.4811822   -2.1718581   -5.8599535        15625    2.0382773    1.8730941    2.0743968 -0.0012007692 -0.0042616572  0.052195874            0           25            0           25            0           25 
  140000   0.92468551    1.9444143   -5.8680364    1.3869255   -4.4811109   -2.2306313   -5.8680364        15625    1.9342694    1.9274076     1.971566 -0.0084672015  0.021230438 -0.039787776            0           25            0           25            0           25 
  141000   0.91808698    1.9072713   -5.8756249    1.3770285   -4.4985965   -2.2911065   -5.8756249        15625    1.9014946    1.9088151    1.9115043 -0.054956924 0.0076590676 -0.013607943            0           25            0           25            0           25 
  142000   0.92107185    1.9710354   -5.8645405    1.3815054   -4.4830351   -2.2017441   -5.8645405        15625    1.9999667    1.9284111    1.9847284  0.018883687  0.031296446  0.028910675            0           25            0           25            0           25 
  143000    0.9195595    1.9732068   -5.8623028    1.3792371   -4.4830657   -2.1992616   -5.8623028        15625    1.9943101    1.9677535    1.9575567  0.014790711  -0.01415599 -0.056191261            0           25            0           25            0           25 
  144000   0.92474376    1.9574588   -5.8700982    1.3870129   -4.4830853    -2.217508   -5.8700982        15625    1.9303887    1.9925002    1.9494873  0.020267594 -0.023702842  0.036717131            0           25            0           25            0           25 
  145000    0.9176055    1.9832111   -5.8593112    1.3763063   -4.4830049   -2.1876217   -5.8593112        15625    1.8826835    2.0987054    1.9682443 -0.052721499 -0.042338958 0.0077742433            0           25            0           25            0           25 
  146000   0.91933869    1.9901442   -5.8619558    1.3789059   -4.4830499   -2.1796423   -5.8619558        15625    2.0697078    1.9461651    1.9545597 -0.021440998 -0.014353456  0.062456742            0           25            0           25            0           25 
  147000   0.91316731    1.9343416   -5.8677586    1.3696495   -4.4981091   -2.2592878   -5.8677586        15625    1.9873265    1.9477748    1.8679234  0.059083634 0.0028933388 -0.013842339            0           25            0           25            0           25 
  148000    0.9085016    1.9708147     -5.86085    1.3626514   -4.4981986    -2.217163     -5.86085        15625    1.9790947    2.0095886    1.9237609 -0.069555307 -0.035762599 -0.031394196            0           25            0           25            0           25 
  149000   0.91286396    1.9522852   -5.8673772    1.3691945   -4.4981827   -2.2385933   -5.8673772        15625     1.949171    1.9155114    1.9921733  0.010412451   0.10583448 0.0036106398            0           25            0           25            0           25 
  150000   0.90975923    1.9790011   -5.8627094    1.3645378   -4.4981716   -2.2076611   -5.8627094        15625     1.984673    2.0148375    1.9374928  0.035257595 -0.075622693  0.026478109            0           25            0           25            0           25 
  151000   0.91339548    1.9505329   -5.8681549    1.3699917   -4.4981632    -2.240602   -5.8681549        15625    1.9092935    1.9398738    2.0024314  0.046527556 -0.0034520288  0.055578785            0           25            0           25            0           25 
  152000   0.91566335    1.9505714   -5.8716346    1.3733933   -4.4982413   -2.2406355   -5.8716346        15625    1.9014113    1.9391136    2.0111893 -0.010370858 -0.0042505778 -0.032135822            0           25            0           25            0           25 
  153000   0.90929695    1.9711064   -5.8619801    1.3638444   -4.4981357   -2.2167625   -5.8619801        15625    1.9639715     1.971561    1.9777868 0.0039637838  0.026975572 -0.015701977            0           25            0           25            0           25 
  154000   0.91627763    1.9238314   -5.8724966    1.3743146    -4.498182   -2.2715252   -5.8724966        15625    1.8626023    1.9498576    1.9590344 -0.014149821 -0.043548225  0.021527133            0           25            0           25            0           25 
  155000   0.91013455    1.8974535   -5.8802614    1.3651007   -4.5151607    -2.319034   -5.8802614        15625    1.9507691    1.8874385     1.854153  0.014133639  -0.04368255  0.032827357            0           25            0           25            0           25 
  156000   0.90715587    1.9186729   -5.8757234     1.360633   -4.5150904   -2.2944042   -5.8757234        15625    1.9828853    1.9114611    1.8616722 -0.054616772  0.074313555  0.058776857            0           25            0           25            0           25 
  157000   0.90922059    1.8898458    -5.878771    1.3637299   -4.5150412   -2.3277196    -5.878771        15625    1.8718227      1.90225    1.8954647 -0.052844509 -0.015911558 -0.067990469            0           25            0           25            0           25 
  158000   0.90268452    1.9387778    -5.869043    1.3539265   -4.5151165   -2.2711608    -5.869043        15625     1.864096    1.9210696    2.0311677  0.034699743  0.061262901  0.015110889            0           25            0           25            0           25 
  159000   0.90928378    1.9014509    -5.876631    1.3638246   -4.5128063    -2.312053    -5.876631        15625     1.891774    1.8926042    1.9199744 -0.0076798146  0.036750575  0.013754794            0           25            0           25            0           25 
  160000   0.90851694    1.9773846   -5.8579778    1.3626745   -4.4953033   -2.2066637   -5.8579778        15625    1.9891345     1.957346    1.9856732  0.029348901   0.04798044 -0.0050541082            0           25            0           25            0           25 
  161000   0.90055537    1.9446229   -5.8677468     1.350733   -4.5170138   -2.2662928   -5.8677468        15625    1.8874854    1.9007535    2.0456298  0.045676369 -0.0021542063  -0.05349899            0           25            0           25            0           25 
  162000   0.90729015    1.9075532   -5.8779252    1.3608344   -4.5170908   -2.3092746   -5.8779252        15625    1.8971337    1.8350941    1.9904318  0.057335416 -0.022462089 -0.023290812            0           25            0           25            0           25 
  163000   0.90656333    1.9008785   -5.8768004    1.3597443   -4.5170562   -2.3169653   -5.8768004        15625    1.9717665    1.8601086    1.8707602 -0.0043902913  0.005597543 -0.022332926            0           25            0           25            0           25 
  164000   0.91279755    1.8590905   -5.8861517    1.3690949   -4.5170568   -2.3653316   -5.8861517        15625    1.9192115    1.8286362    1.8294239  -0.10960626  0.016863085   0.08031734            0           25            0           25            0           25 
  165000   0.90895447    1.9031425   -5.8757751    1.3633307   -4.5124444   -2.3097331   -5.8757751        15625    1.8680741    1.9010733    1.9402801  0.012066457 -0.033705923 -0.048953046            0           25            0           25            0           25 
  166000   0.90748618    1.9168547   -5.8734907    1.3611284   -4.5123623   -2.2937805   -5.8734907        15625    1.7859112    2.0537003    1.9109524 -0.022989088 -0.072760661  0.018127663            0           25            0           25            0           25 
  167000   0.90817227     1.908396   -5.8746207    1.3621575   -4.5124632   -2.3036715   -5.8746207        15625     1.956544    1.8488052    1.9198389 0.0019915703  0.021000203  0.053250758            0           25            0           25            0           25 
  168000    0.8929891    1.9178309   -5.8707946    1.3393844   -4.5314102   -2.3116985   -5.8707946        15625    1.9143629    1.8717997    1.9673301 -0.029966527  -0.04645895  0.028353183            0           25            0           25            0           25 
  169000   0.89829787    1.8809701   -5.8788012     1.347347   -4.5314542   -2.3544055   -5.8788012        15625    1.9267015    1.9039727    1.8122361 -0.050389681 -0.028269191 -0.021418869            0           25            0           25            0           25 
  170000   0.90166099    1.8527022   -5.8838481    1.3523913   -4.5314568   -2.3871255   -5.8838481        15625    1.8132492    1.8440948    1.9007626 -0.063386758  0.064579163  0.085321978            0           25            0           25            0           25 
  171000   0.90236864    1.8481294   -5.8849185    1.3534527   -4.5314658   -2.3924271   -5.8849185        15625    1.8588287    1.8401208    1.8454386 -0.0021913535 0.0033809781  0.033334553            0           25            0           25            0           25 
  172000   0.89619717    1.9029931   -5.8756061    1.3441962   -4.5314099   -2.3288716   -5.8756061        15625    1.8339247    1.8954162    1.9796385  0.098046802 -0.0083327508 -0.021485774            0           25            0           25            0           25 
  173000   0.90020238    1.8842355   -5.8837579    1.3502036   -4.5335543   -2.3527262   -5.8837579        15625    1.9532296    1.8966441    1.8028327 -0.0095067446 -0.041785005 -0.0018856899            0           25            0           25            0           25 
  174000   0.90481914     1.832641   -5.8907303    1.3571282   -4.5336021   -2.4124898   -5.8907303        15625    1.8443219    1.8200756    1.8335255  0.023946565  -0.05213108  0.047279084            0           25            0           25            0           25 
  175000   0.90160721    1.8655431   -5.8859465    1.3523106   -4.5336359   -2.3744425   -5.8859465        15625    1.8981016    1.8265218    1.8720059 -0.00053506896  0.044867414 -0.079291301            0           25            0           25            0           25 
  176000   0.90139587    1.8325559   -5.8855307    1.3519937   -4.5335371   -2.4125233   -5.8855307        15625    1.8397633    1.9331073     1.724797 -0.048741227 -0.0082618629 -0.052710549            0           25            0           25            0           25 
  177000   0.90130769      1.86549    -5.885455    1.3518614   -4.5335937   -2.3744618    -5.885455        15625    1.8658086    1.8912154    1.8394458  0.045403252  0.021330383  0.045842192            0           25            0           25            0           25 
  178000   0.90384706    1.8441823   -5.8892331    1.3556702   -4.5335629   -2.3990927   -5.8892331        15625    1.7675665    1.8937986    1.8711818 -0.014457763 0.00027829052  0.010385601            0           25            0           25            0           25 
  179000   0.89587593    1.8378204   -5.8892844    1.3437144     -4.54557   -2.4184631   -5.8892844        15625    1.8077292     1.852082      1.85365 -0.0022993911  0.039794344  0.037414927            0           25            0           25            0           25 
  180000   0.89126917    1.8787538   -5.8823532    1.3368047   -4.5455485   -2.3710649   -5.8823532        15625    1.7861188    2.0122993    1.8378433 -0.026030944 0.0047199787  0.046298608            0           25            0           25            0           25 
  181000   0.89485541    1.8231251    -5.887766    1.3421837   -4.5455823   -2.4354837    -5.887766        15625    1.8327341    1.7948993    1.8417421 -0.025408278 -0.011294596  0.011505131            0           25            0           25            0           25 
  182000    0.8920744    1.8596862   -5.8836112    1.3380125   -4.5455987   -2.3931841   -5.8836112        15625    1.8647391    1.9008755    1.8134442  0.035436952 -0.034256611  0.039554053            0           25            0           25            0           25 
  183000   0.88573153    1.7716475   -5.8979053    1.3284989   -4.5694064   -2.5188885   -5.8979053        15625    1.7859788    1.7622767     1.766687  -0.01072297  0.042471701 -0.013778142            0           25            0           25            0           25 
  184000   0.89395884    1.8414024   -5.8889961    1.3408389   -4.5481572   -2.4169043   -5.8889961        15625     1.787501    1.8595014    1.8772049 -0.024066697 -0.023584021 -0.011327269            0           25            0           25            0           25 
  185000   0.89452674    1.8414695   -5.8899286    1.3416907   -4.5482379   -2.4169075   -5.8899286        15625    1.7932659    1.8811078    1.8500347   -0.0182699  0.046117581 -0.070727107            0           25            0           25            0           25 
  186000    0.8910145    1.8464877   -5.8846261    1.3364228   -4.5482033   -2.4110648   -5.8846261        15625    1.9452653    1.8277333    1.7664645  0.013756759  -0.10558826 -0.012648696            0           25            0           25            0           25 
  187000   0.89358099     1.852076   -5.8874145    1.3402722   -4.5471423   -2.4035358   -5.8874145        15625    1.9031219    1.8303911     1.822715  0.022356431  0.033919379  0.033351414            0           25            0           25            0           25 
  188000   0.89823506    1.8157556   -5.8944415    1.3472528   -4.5471887   -2.4456197   -5.8944415        15625    1.8288691    1.8974962    1.7209016  0.043385067 -0.00071277759  0.057325302            0           25            0           25            0           25 
  189000   0.88046943    1.8290337   -5.8860694    1.3206063   -4.5654631    -2.448526   -5.8860694        15625    1.8297173    1.7899133    1.8674705 -0.023392554  0.011466905  0.012030604            0           25            0           25            0           25 
  190000   0.88397029    1.8068942   -5.8913543    1.3258572   -4.5654971   -2.4741843   -5.8913543        15625    1.8272393    1.8482443     1.745199 0.00065588358 -0.044281786 -0.0035135991            0           25            0           25            0           25 
  191000   0.89606625    1.8075704    -5.894259    1.3439998   -4.5502592   -2.4581637    -5.894259        15625     1.837961      1.72283    1.8619203  0.053217572 -0.0067045062 -0.042818842            0           25            0           25            0           25 
  192000   0.88373986    1.8051594   -5.8949292    1.3255116   -4.5694176   -2.4801127   -5.8949292        15625    1.8780278    1.7871889    1.7502615  0.038928449   0.10605048  0.014620909            0           25            0           25            0           25 
  193000   0.89018901    1.7556597   -5.9045438    1.3351846   -4.5693592   -2.5373457   -5.9045438        15625    1.7437774     1.768116    1.7550857 -0.034337755  0.066520297 -0.037868524            0           25            0           25            0           25 
  194000    0.8849569     1.793666   -5.8966813     1.327337   -4.5693443    -2.493342   -5.8966813        15625    1.7767244    1.8665175     1.737756  0.012204082 -0.030448863  0.023453479            0           25            0           25            0           25 
  195000   0.88438458    1.7987454   -5.8958438    1.3264786   -4.5693652   -2.4874839   -5.8958438        15625    1.8631626    1.6905065    1.8425673 -0.026944123 0.0066052334   0.06212476            0           25            0           25            0           25 
  196000   0.89208973    1.7353271   -5.9073772    1.3380355   -4.5693417   -2.5608613   -5.9073772        15625    1.7363006    1.7283714    1.7413092   0.13438011      0.11949 0.0020117742            0           25            0           25            0           25 
  197000   0.88473204    1.8031749   -5.8963613    1.3269998   -4.5693615   -2.4823535   -5.8963613        15625     1.911537    1.8156494    1.6823382 0.0042697252 -0.0038569334 -0.071832704            0           25            0           25            0           25 
  198000   0.88438722    1.8065774   -5.8958467    1.3264826   -4.5693642    -2.478418   -5.8958467        15625    1.8117051    1.8852275    1.7227997  0.021719148  0.040207361 -0.014058768            0           25            0           25            0           25 
  199000   0.87648331    1.7446291   -5.9003055    1.3146276   -4.5856779   -2.5664312   -5.9003055        15625    1.8068375    1.7742924    1.6527574 -0.050452058 0.0024099587 -0.040170561            0           25            0           25            0           25 
  200000   0.89302599    1.6528523   -5.9250918    1.3394398    -4.585652   -2.6726285   -5.9250918        15625    1.6338195    1.6579241    1.6668134 -0.010273833 -0.019202929 -0.050907848            0           25            0           25            0           25 
  201000   0.87883085    1.7396889    -5.903822    1.3181486   -4.5856734   -2.5721445    -5.903822        15625     1.767629    1.7753956    1.6760421 -0.041543127 -0.020687118 -0.038144236            0           25            0           25            0           25 
  202000   0.87574227    1.7709592   -5.8991878    1.3135161   -4.5856717   -2.5359504   -5.8991878        15625    1.8170687    1.8240447    1.6717643 -0.0075529276  0.029344396 -0.031766931            0           25            0           25            0           25 
  203000   0.87615449     1.745118   -5.8997383    1.3141344   -4.5856039   -2.5657914   -5.8997383        15625    1.7477406    1.7379219    1.7496915 -0.015646525  0.024740076   0.03236936            0           25            0           25            0           25 
  204000   0.87822982    1.7765544   -5.9029123    1.3172472   -4.5856652    -2.529468   -5.9029123        15625     1.732655    1.7245157    1.8724923  0.013058533  0.036566552  -0.02642789            0           25            0           25            0           25 
  205000   0.87863056    1.7687481   -5.9035375    1.3178482   -4.5856893   -2.5385272   -5.9035375        15625     1.779895     1.762402    1.7639471  0.083452524 -0.0062468298  0.022763259            0           25            0           25            0           25 
  206000   0.87757257    1.7502435   -5.9019234    1.3162613    -4.585662   -2.5599172   -5.9019234        15625    1.6789391    1.8164658    1.7553256 -0.070052764 -0.076382341 -0.007296366            0           25            0           25            0           25 
  207000   0.88247135    1.7083543   -5.9092531     1.323609   -4.5856441   -2.6083823   -5.9092531        15625    1.7922954     1.634938    1.6978294  0.006010072  0.034911501 -0.0026991503            0           25            0           25            0           25 
  208000   0.88098214    1.7275726   -5.9070732    1.3213753   -4.5856979   -2.5861925   -5.9070732        15625    1.7714632    1.7338071    1.6774476  0.059125448  0.005023396  -0.02497402            0           25            0           25            0           25 
  209000   0.88550571    1.7134861   -5.9139148    1.3281602   -4.5857546   -2.6025531   -5.9139148        15625    1.6807291     1.737483    1.7222463   0.01220266  -0.02067119  0.011229667            0           25            0           25            0           25 
  210000   0.87525238     1.778355   -5.8984065    1.3127813   -4.5856252   -2.5273439   -5.8984065        15625    1.8191557    1.7139736    1.8019358  0.012023669 -0.036688523 -0.034959712            0           25            0           25            0           25 
  211000   0.87251944    1.7086598   -5.9110871    1.3086822   -4.6024048   -2.6247893   -5.9110871        15625    1.7703441    1.6062842    1.7493511 0.0062033135 -0.0010502421 -0.056257961            0           25            0           25            0           25 
  212000   0.87264209    1.7042289   -5.9112561    1.3088662   -4.6023899   -2.6299028   -5.9112561        15625    1.7113423    1.7423236    1.6590208  0.020759593 -0.019652938 -0.024202331            0           25            0           25            0           25 
  213000   0.86804888    1.7435134   -5.9043395    1.3019769   -4.6023626   -2.5844073   -5.9043395        15625    1.6765994    1.8073466    1.7465941 -0.072192268 -0.0068500072 -0.039188336            0           25            0           25            0           25 
  214000   0.87975905    1.6408877    -5.921916    1.3195408   -4.6023752   -2.7031996    -5.921916        15625    1.6769333    1.6192856    1.6264443 -0.011955782  -0.02110892  -0.03380237            0           25            0           25            0           25 
  215000   0.87438402    1.6982995   -5.9138396    1.3114789   -4.6023607   -2.6367363   -5.9138396        15625    1.7064316    1.6564906    1.7319763  0.032566015 -0.034041398 -0.047341383            0           25            0           25            0           25 
  216000   0.86637093     1.680924   -5.9174527    1.2994601   -4.6179926   -2.6724787   -5.9174527        15625    1.7135076     1.675973    1.6532912  0.047001685  0.034719807   -0.0354945            0           25            0           25            0           25 
  217000   0.87473407    1.7094761   -5.9096841    1.3120039   -4.5976802   -2.6191199   -5.9096841        15625    1.7109506    1.6060085    1.8114692 0.0014185627  0.061784271 -0.024252757            0           25            0           25            0           25 
  218000   0.86436725    1.7796474   -5.8940708    1.2964548    -4.597616   -2.5378389   -5.8940708        15625    1.6884771    1.7885624    1.8619026 -0.015729427 -0.089042591  0.055901576            0           25            0           25            0           25 
  219000    0.8796944    1.6904418   -5.9170816    1.3194439   -4.5976378   -2.6411079   -5.9170816        15625    1.7294771    1.7206259    1.6212223 -0.031192574 -0.012271315 -0.0034669446            0           25            0           25            0           25 
  220000   0.87315208    1.6523076   -5.9223765    1.3096311   -4.6127454   -2.7003523   -5.9223765        15625    1.6193715    1.7120984     1.625453 -0.0060534221  0.034163506 0.00078388246            0           25            0           25            0           25 
  221000   0.87158791    1.6590226   -5.9200414     1.307285   -4.6127564   -2.6925913   -5.9200414        15625      1.64763    1.6295185    1.6999194 -0.045420949 -0.038956779 -0.0062783175            0           25            0           25            0           25 
  222000   0.87602024     1.635025   -5.9267302     1.313933   -4.6127972   -2.7204071   -5.9267302        15625    1.6699852    1.6093668    1.6257231  0.064303095 0.0050772974  0.019016099            0           25            0           25            0           25 
  223000   0.87826633    1.7005541   -5.9144406    1.3173019   -4.5971387   -2.6289048   -5.9144406        15625    1.6196136    1.6755946     1.806454  0.028682996 -0.042615218   0.01301899            0           25            0           25            0           25 
  224000   0.87769154    1.6973542    -5.913544    1.3164398   -4.5971042    -2.632574    -5.913544        15625    1.6687195    1.6932808    1.7300622 -0.050812933 -0.011267205 0.0013466664            0           25            0           25            0           25 
  225000    0.8701037    1.6651741   -5.9175429    1.3050589   -4.6124841   -2.6851993   -5.9175429        15625    1.6196468    1.6747005     1.701175 -0.020895128  0.028037466 -0.030052096            0           25            0           25            0           25 
  226000   0.87369863    1.6524575   -5.9229334    1.3104509   -4.6124825    -2.699916   -5.9229334        15625    1.5868778    1.6480867    1.7224079  0.032719739 0.0036164734   0.08132322            0           25            0           25            0           25 
  227000   0.87139785    1.6538068   -5.9194698        1.307   -4.6124698   -2.6983416   -5.9194698        15625    1.6181076    1.6496687     1.693644 -0.005060453 -0.037859665  0.014429699            0           25            0           25            0           25 
  228000   0.85758433    1.6673033   -5.9162082    1.2862812    -4.629927   -2.7001778   -5.9162082        15625     1.638642    1.6295248    1.7337431  0.041869968  -0.01078957 -0.0067161035            0           25            0           25            0           25 
  229000     0.868094    1.5908318   -5.9320071    1.3020445   -4.6299626   -2.7887221   -5.9320071        15625    1.5484298    1.6191724    1.6048931  0.019609162 -0.024738462  0.021890096            0           25            0           25            0           25 
  230000   0.86425674    1.6239476   -5.9262511    1.2962891    -4.629962    -2.750393   -5.9262511        15625    1.6135306    1.6336788    1.6246334  0.045759458  -0.04053614  0.037791002            0           25            0           25            0           25 
  231000   0.86579874    1.6994065   -5.9106757    1.2986019   -4.6120738   -2.6451681   -5.9106757        15625    1.6066065     1.727781    1.7638322  0.027057969  0.027023115  0.015932748            0           25            0           25            0           25 
  232000   0.86521776    1.6385177   -5.9279385    1.2977305    -4.630208   -2.7337755   -5.9279385        15625     1.636907    1.6734588    1.6051875  0.055453443   0.01302315   0.04329423            0           25            0           25            0           25 
  233000   0.85898413    1.6492467   -5.9185446    1.2883807   -4.6301638   -2.7213134   -5.9185446        15625    1.5996301    1.6703993    1.6777108  0.017481237 -0.050424697 -0.010029662            0           25            0           25            0           25 
  234000   0.85946365    1.6579697   -5.9193122       1.2891   -4.6302123   -2.7112658   -5.9193122        15625    1.6064969    1.6605068    1.7069053  0.079797826  0.034050012  0.012195633            0           25            0           25            0           25 
  235000   0.86541155    1.6206111   -5.9282267    1.2980212   -4.6302055   -2.7544982   -5.9282267        15625    1.6957248    1.5859276    1.5801809  0.034747075  0.042198002  0.025970698            0           25            0           25            0           25 
  236000   0.86619999    1.6197962   -5.9281773    1.2992037   -4.6289736   -2.7542094   -5.9281773        15625    1.5715539    1.6386796    1.6491551 -0.016809985 -0.022871602 -0.0057260486            0           25            0           25            0           25 
  237000   0.86201852    1.6441131   -5.9218473     1.292932   -4.6289153   -2.7260066   -5.9218473        15625    1.6657734    1.6246325    1.6419334 -0.065974618  -0.04105999 -0.028199571            0           25            0           25            0           25 
  238000   0.86327696    1.6434377   -5.9237962    1.2948195   -4.6289767   -2.7268497   -5.9237962        15625    1.6437351    1.7419661     1.544612 -0.014967597  0.022352361 -0.014331319            0           25            0           25            0           25 
  239000   0.86010043     1.658088   -5.9190392    1.2900551   -4.6289841   -2.7099007   -5.9190392        15625    1.6968703    1.6921771    1.5852168  0.053712607  0.043707731 -0.014933968            0           25            0           25            0           25 
  240000   0.85538936    1.5972159   -5.9272621     1.282989   -4.6442731   -2.7956436   -5.9272621        15625    1.6105835    1.5943582     1.586706 -0.039864396  0.016179953 -0.052148618            0           25            0           25            0           25 
  241000   0.86230539     1.635229   -5.9210688    1.2933623   -4.6277065   -2.7350803   -5.9210688        15625    1.6691678    1.6221437    1.6143755 -0.044398813  0.018867927  -0.04859129            0           25            0           25            0           25 
  242000   0.86142761    1.6736007   -5.9197446    1.2920457   -4.6276989    -2.690661   -5.9197446        15625    1.7123883    1.6619459    1.6464679  0.040823108  -0.06007294  0.023677224            0           25            0           25            0           25 
  243000   0.85882698    1.6613251   -5.9170155     1.288145   -4.6288705   -2.7060405   -5.9170155        15625    1.5864631    1.7204384    1.6770739 -0.090128299  0.011066212 0.0083030555            0           25            0           25            0           25 
  244000   0.85059964    1.6184848   -5.9235865    1.2758049   -4.6477815   -2.7745352   -5.9235865        15625    1.5653077    1.6643647    1.6257821  0.019163837 -0.071135449  0.025514976            0           25            0           25            0           25 
  245000   0.86382018    1.5278156   -5.9434674    1.2956343   -4.6478331   -2.8795281   -5.9434674        15625    1.4672061    1.5873741    1.5288665 -0.029441945  0.062644873  0.020387257            0           25            0           25            0           25 
  246000   0.85320668    1.6174823    -5.924989    1.2797152   -4.6452738   -2.7731878    -5.924989        15625    1.6727972     1.638656    1.5409938 -0.0068537895 0.0082464267  -0.10767427            0           25            0           25            0           25 
  247000   0.85652688    1.5994284   -5.9299252    1.2846952     -4.64523   -2.7940397   -5.9299252        15625    1.6064608     1.639187    1.5526375 -0.055243442  0.037302157 -0.012855463            0           25            0           25            0           25 
  248000   0.85495061    1.6173701   -5.9275938    1.2823309   -4.6452629   -2.7733067   -5.9275938        15625    1.6465722    1.6173974    1.5881407   0.02057501 -0.0096166701 -0.019793459            0           25            0           25            0           25 
  249000   0.85671312    1.5952677   -5.9302457    1.2849745   -4.6452712   -2.7988965   -5.9302457        15625    1.7379587    1.5387226    1.5091218   -0.0353561 -0.038803752 -0.011530714            0           25            0           25            0           25 
  250000   0.85501966    1.6073816   -5.9276568    1.2824345   -4.6452223   -2.7848269   -5.9276568        15625    1.6463511    1.6265813    1.5492125 -0.038433372 -0.018893777 -0.0015663189            0           25            0           25            0           25 
  251000    0.8602602    1.5857595   -5.9356292    1.2902947   -4.6453345   -2.8099647   -5.9356292        15625    1.6659022     1.583875    1.5075012  -0.02167321   0.03589973 0.0078117941            0           25            0           25            0           25 
  252000   0.86057705    1.5621965   -5.9360147      1.29077   -4.6452447   -2.8371469   -5.9360147        15625    1.5427546    1.5674094    1.5764255   0.02859763  0.081627144  0.041970187            0           25            0           25            0           25 
  253000   0.85649421    1.6120184    -5.929944    1.2846462   -4.6452979   -2.7795359    -5.929944        15625    1.5810177    1.5924271    1.6626103 -0.031359805  0.031423173   0.12072468            0           25            0           25            0           25 
  254000   0.84373425     1.615421    -5.926679    1.2655076   -4.6611713   -2.7914711    -5.926679        15625    1.6390268    1.6208803     1.586356 -0.041373715  0.063480084 0.0040308975            0           25            0           25            0           25 
  255000   0.85808708    1.6141276   -5.9265265    1.2870353   -4.6394912    -2.771288   -5.9265265        15625    1.6344687    1.5879126    1.6200014  0.005700993 -0.060598398  0.017717774            0           25            0           25            0           25 
  256000   0.84892755    1.5957401   -5.9325995     1.273297   -4.6593025   -2.8123811   -5.9325995        15625    1.5744927    1.6060325    1.6066952  0.068326737  0.016300601  0.074473524            0           25            0           25            0           25 
  257000    0.8562491    1.5407511   -5.9436497    1.2842785   -4.6593712   -2.8760945   -5.9436497        15625    1.5232857    1.5679216     1.531046  0.051759134 0.0049949998 -0.044768789            0           25            0           25            0           25 
  258000   0.85363089    1.5593321   -5.9396354    1.2803515   -4.6592839   -2.8545014   -5.9396354        15625    1.5341585    1.5543949    1.5894429 0.0066284556 -0.010881085 -0.012985903            0           25            0           25            0           25 
  259000   0.85647054    1.5373925   -5.9439855    1.2846107   -4.6593749   -2.8799854   -5.9439855        15625    1.5421432    1.5125148    1.5575195 -0.024601094  0.016796637 -0.021022785            0           25            0           25            0           25 
  260000   0.85151227    1.5554249   -5.9364923    1.2771738   -4.6593185   -2.8590583   -5.9364923        15625    1.5662105    1.5027366    1.5973274  0.038232467  -0.03407666 -0.0043830708            0           25            0           25            0           25 
  261000   0.85171118    1.4845137   -5.9524886    1.2774721   -4.6750165   -2.9568294   -5.9524886        15625     1.538403    1.3788999    1.5362381  0.081703301  0.011554569 -0.021916645            0           25            0           25            0           25 
  262000   0.84261204    1.5543646   -5.9388349    1.2638244   -4.6750104   -2.8759773   -5.9388349        15625    1.4965299    1.6644765    1.5020874 -0.035344026 0.0049630033  -0.01974605            0           25            0           25            0           25 
  263000    0.8508271    1.5720852    -5.935802    1.2761461   -4.6596559   -2.8401129    -5.935802        15625    1.4879259    1.6007792    1.6275503 -0.058585747   0.01246914 -0.035171251            0           25            0           25            0           25 
  264000   0.85037816    1.5809845   -5.9351779    1.2754728   -4.6597051    -2.829862   -5.9351779        15625    1.5428514    1.6276821      1.57242   -0.0246421   0.03201154 -0.015621741            0           25            0           25            0           25 
  265000   0.85062352    1.5723846   -5.9355049    1.2758408   -4.6596641   -2.8397745   -5.9355049        15625    1.6395795    1.4837827    1.5937917 0.0088673537 -0.027736626 -0.032829431            0           25            0           25            0           25 
  266000   0.84546443    1.6219765   -5.9239353    1.2681027   -4.6558326   -2.7785449   -5.9239353        15625    1.6163856    1.6473478    1.6021962 0.0053803023 -0.056685226  0.039088128            0           25            0           25            0           25 
  267000   0.84556872    1.4804756   -5.9497063    1.2682591   -4.6814471   -2.9679337   -5.9497063        15625    1.4552942    1.5682675    1.4178651  0.040397087   0.02052499  0.022655651            0           25            0           25            0           25 
  268000    0.8428999    1.5020887   -5.9456655    1.2642562   -4.6814093   -2.9428807   -5.9456655        15625    1.5184166    1.4870793    1.5007703  0.038266041  0.019801327 -0.013056273            0           25            0           25            0           25 
  269000    0.8389067    1.5275543   -5.9396923    1.2582668   -4.6814254   -2.9134227   -5.9396923        15625     1.610081    1.4576029    1.5149791  0.022925426 -0.048322992 0.0044114266            0           25            0           25            0           25 
  270000   0.83815766    1.5543022   -5.9386212    1.2571434   -4.6814778    -2.882517   -5.9386212        15625    1.6532362    1.4960452     1.513625 -0.017568708   -0.0669436 -0.020028209            0           25            0           25            0           25 
  271000   0.84693009    1.5150529   -5.9518214     1.270301   -4.6815204    -2.927987   -5.9518214        15625    1.5639272    1.5292007    1.4520308 -0.037725606 0.0019816037 0.0023600196            0           25            0           25            0           25 
  272000   0.84502346    1.4968762   -5.9488885    1.2674413   -4.6814472   -2.9489516   -5.9488885        15625    1.5655425    1.4430958    1.4819901   -0.0241538  0.026263227  0.016446989            0           25            0           25            0           25 
  273000    0.8406829    1.5198651    -5.942387    1.2609309   -4.6814561   -2.9223529    -5.942387        15625    1.5162827    1.5415398    1.5017728 -0.0085420186  0.068924449  0.080348121            0           25            0           25            0           25 
  274000   0.83428077    1.4873543   -5.9506643    1.2513285   -4.6993358   -2.9778609   -5.9506643        15625    1.4998946    1.4422446    1.5199237 -0.066833365 -0.021282785 -0.020644765            0           25            0           25            0           25 
  275000   0.83901598    1.5245692   -5.9416553    1.2584307   -4.6832246   -2.9186769   -5.9416553        15625    1.4930467    1.5110992    1.5695618 -0.025845231   0.05374599 -0.0052251936            0           25            0           25            0           25 
  276000   0.83895335    1.5131991   -5.9415811    1.2583368   -4.6832443   -2.9318564   -5.9415811        15625    1.5636286    1.4734649    1.5025038  0.011533504 -0.027268553  0.046535083            0           25            0           25            0           25 
  277000   0.84443966    1.4842032   -5.9498628    1.2665657   -4.6832971   -2.9654694   -5.9498628        15625    1.5159471    1.4974708    1.4391917 0.0095742616 -0.052941907  0.076442608            0           25            0           25            0           25 
[...]
  680000   0.71590471   0.56825826   -6.1111605    1.0737775    -5.037383   -4.3796767   -6.1111605        15625   0.51508276   0.61899161   0.57070042  0.029937946  0.015761781 -0.033354025            0           25            0           25            0           25 
  681000   0.70996859   0.61879505   -6.1022486     1.064874   -5.0373746   -4.3211766   -6.1022486        15625   0.54954684   0.68372156   0.62311675 -0.016578466  0.011967332 -0.021894967            0           25            0           25            0           25 
  682000    0.7089426   0.61966616   -6.1007364    1.0633351   -5.0374013   -4.3201951   -6.1007364        15625   0.59480559   0.64695289   0.61724002 0.0088800001  0.031869481 -0.014369888            0           25            0           25            0           25 
  683000   0.71024171   0.61051475   -6.1027154    1.0652837   -5.0374317   -4.3308174   -6.1027154        15625   0.60460248   0.60847313   0.61846863 -0.00098671814 -0.062104615 -0.022463873            0           25            0           25            0           25 
  684000   0.71263936   0.61444939    -6.106286    1.0688799   -5.0374062   -4.3262379    -6.106286        15625   0.58482508   0.59614423   0.66237887 -0.0033227019   0.05593244  0.071374256            0           25            0           25            0           25 
  685000   0.70451064   0.66228736   -6.0940456    1.0566877   -5.0373579   -4.2708216   -6.0940456        15625    0.6704245   0.66514365   0.65129393 -0.021908939 -0.037444543 -0.029505239            0           25            0           25            0           25 
  686000   0.71049187   0.61083009    -6.103041    1.0656589   -5.0373821   -4.3304029    -6.103041        15625   0.65880185   0.61337113   0.56031729 -0.0073457161  0.018254769    -0.056925            0           25            0           25            0           25 
  687000   0.71530105   0.58819597   -6.1103183    1.0728721   -5.0374462   -4.3566639   -6.1103183        15625   0.61283547   0.58868026   0.56307218 -0.018206292  0.038214941  0.015356825            0           25            0           25            0           25 
  688000   0.70465255   0.65910949   -6.0942392    1.0569005   -5.0373386   -4.2744804   -6.0942392        15625   0.60353073   0.66186307   0.71193469 -0.011817098 0.0082378202  0.028176554            0           25            0           25            0           25 
  689000   0.71148018   0.59901827   -6.1045443    1.0671412    -5.037403   -4.3440948   -6.1045443        15625   0.61204086   0.62505775    0.5599562 -0.054129763 -0.019016108  0.040104818            0           25            0           25            0           25 
  690000   0.71263674   0.59730265   -6.1062916    1.0688759   -5.0374156   -4.3460931   -6.1062916        15625   0.58391681    0.6221373   0.58585384 -0.028361935  -0.03391764 0.0024438516            0           25            0           25            0           25 
  691000   0.71080867   0.62745377   -6.1035439     1.066134   -5.0374099   -4.3111902   -6.1035439        15625   0.60355653   0.62020109   0.65860368  -0.06566374  0.033020861 -0.0063973068            0           25            0           25            0           25 
  692000   0.70498321   0.66670497   -6.0947967    1.0573965   -5.0374002   -4.2657509   -6.0947967        15625   0.68384935   0.67064295   0.64562262  -0.05029932 -0.053523818 -0.010654441            0           25            0           25            0           25 
  693000   0.70491385    0.6489715   -6.0946844    1.0572924    -5.037392   -4.2862676   -6.0946844        15625   0.63571967   0.63574946   0.67544535 -0.030652675  0.008213561  0.019713936            0           25            0           25            0           25 
  694000   0.71258323   0.61726996   -6.1061841    1.0687957   -5.0373884   -4.3229556   -6.1061841        15625   0.64908209   0.61391876   0.58880904  -0.04277414 -0.025982381  0.010600648            0           25            0           25            0           25 
  695000   0.71087929   0.61171667   -6.1036171    1.0662399   -5.0373772   -4.3293718   -6.1036171        15625    0.6606979   0.60648125   0.56797087 -0.021479732 0.0096210021  0.016953561            0           25            0           25            0           25 
  696000   0.70930236   0.61245098   -6.1012352    1.0638747   -5.0373604   -4.3285051   -6.1012352        15625   0.65521976   0.59755156   0.58458161  -0.02652909 0.0059079441  0.009893663            0           25            0           25            0           25 
  697000   0.70832981    0.6351846   -6.0997913     1.062416   -5.0373753   -4.3022079   -6.0997913        15625   0.58280078    0.6628429   0.65991011 -0.020845838 0.0044265101  0.019485117            0           25            0           25            0           25 
  698000   0.71474586   0.59563566   -6.1094365    1.0720394   -5.0373971    -4.348004   -6.1094365        15625   0.59318558   0.59986857   0.59385283 -0.038728387  0.041616196 -0.00012047114            0           25            0           25            0           25 
  699000   0.70485492   0.65441293    -6.094585    1.0572041    -5.037381   -4.2799586    -6.094585        15625   0.68725845    0.6912524   0.58472796 -0.0058599014  0.046730171 -0.030525657            0           25            0           25            0           25 
  700000    0.7158691   0.58417301    -6.111139    1.0737241   -5.0374149   -4.3612887    -6.111139        15625   0.59540207   0.56634751   0.59076944 -0.040028152  0.034930775 0.0060860675            0           25            0           25            0           25 
  701000   0.70907939   0.63307581   -6.1009256    1.0635403   -5.0373853   -4.3046586   -6.1009256        15625   0.64765495   0.68217285   0.56939963  0.019291656  0.012482897 0.0036934716            0           25            0           25            0           25 
  702000   0.70971138   0.62900358   -6.1018619    1.0644882   -5.0373737   -4.3093603   -6.1018619        15625   0.64589457   0.59575691   0.64535924   0.02096951  0.069225207 0.0098096915            0           25            0           25            0           25 
  703000   0.70555823   0.66633517   -6.0956577     1.058259   -5.0373987   -4.2661775   -6.0956577        15625   0.65262701   0.66983509    0.6765434 -0.038629914  0.013252975 0.00087416936            0           25            0           25            0           25 
  704000   0.70819422   0.63934415   -6.0996073    1.0622126   -5.0373947    -4.297413   -6.0996073        15625   0.62185536   0.66290891   0.63326818 -0.016450746  0.058842831 0.0026362118            0           25            0           25            0           25 
  705000   0.70756598   0.65774922   -6.0986723    1.0612704    -5.037402   -4.2761182   -6.0986723        15625   0.67903163    0.6526126   0.64160342  0.017093698 -0.075760356  -0.02444447            0           25            0           25            0           25 
  706000   0.70722493   0.63961291   -6.0981075    1.0607588   -5.0373486   -4.2970559   -6.0981075        15625   0.60775245   0.65995237   0.65113391   0.01067215 -0.026812006 -0.0030739093            0           25            0           25            0           25 
  707000   0.70341802   0.67148939   -6.0923656    1.0550489   -5.0373168     -4.26013   -6.0923656        15625   0.67843113   0.69458558   0.64145146 -0.024193254  0.028924794  0.017285147            0           25            0           25            0           25 
  708000   0.70614199   0.64966115   -6.0965355    1.0591345    -5.037401   -4.2854784   -6.0965355        15625   0.63031015   0.65062986   0.66804345 0.0085494975 -0.031819446 -0.015182165            0           25            0           25            0           25 
  709000   0.71294616   0.61086665   -6.1067219      1.06934   -5.0373818   -4.3303603   -6.1067219        15625   0.59861898   0.62074775   0.61323322 -0.038762345 -0.0043373252 -0.039574253            0           25            0           25            0           25 
  710000   0.71163622    0.6012018   -6.1047752    1.0673753      -5.0374   -4.3415646   -6.1047752        15625    0.5555126   0.66966811   0.57842468  0.059374694 -0.079524101 -0.059403348            0           25            0           25            0           25 
  711000   0.71126549   0.62097345   -6.1042152    1.0668192    -5.037396   -4.3186767   -6.1042152        15625   0.60517733   0.62067706   0.63706598 -0.020992316 -0.0047236078  0.038798041            0           25            0           25            0           25 
  712000   0.70744377   0.62021016   -6.0984483    1.0610871   -5.0373613   -4.3195255   -6.0984483        15625   0.57561191   0.64405537   0.64096321  0.034636294 -0.0064265285  0.020165966            0           25            0           25            0           25 
  713000   0.71472682   0.59904966   -6.1094518    1.0720108   -5.0374409   -4.3440964   -6.1094518        15625   0.59081893   0.63477341   0.57155663  0.028540259 -0.025418789  0.060135923            0           25            0           25            0           25 
  714000   0.70728367    0.6268382   -6.0982126    1.0608469   -5.0373657   -4.3118585   -6.0982126        15625   0.63718304   0.61208854   0.63124301 -0.039232521  0.038750912 0.0037121163            0           25            0           25            0           25 
  715000   0.71068738   0.62294156   -6.1033498    1.0659521   -5.0373977   -4.3164006   -6.1033498        15625   0.58285794    0.6543364   0.63163034  0.043108663  0.054122925  -0.03150732            0           25            0           25            0           25 
  716000   0.71207508   0.59005939   -6.1053981    1.0680335   -5.0373646   -4.3544255   -6.1053981        15625   0.54816711   0.64379322   0.57821784 -0.045130241  0.099704762 -0.029162535            0           25            0           25            0           25 
  717000   0.70752581   0.65772962   -6.0985803    1.0612101   -5.0373702    -4.276109   -6.0985803        15625   0.65379568   0.64734324   0.67204992 0.0041673089 -0.00071077118  0.005663005            0           25            0           25            0           25 
  718000   0.71135293   0.62282829    -6.104333    1.0669504   -5.0373827   -4.3165166    -6.104333        15625   0.63548904   0.59073822    0.6422576 -0.024296305 -0.046549649  0.035436469            0           25            0           25            0           25 
  719000   0.71485944   0.57592436   -6.1095421    1.0722097   -5.0373324   -4.3707533   -6.1095421        15625   0.58976872   0.55246353   0.58554085    0.0206945 -0.017865916  -0.03422096            0           25            0           25            0           25 
  720000   0.71294189   0.60652243   -6.1067497    1.0693336   -5.0374161   -4.3354226   -6.1067497        15625   0.61270555   0.58953068   0.61733105  0.045003015   0.05974707 -0.018931086            0           25            0           25            0           25 
  721000   0.71509197   0.58866421    -6.109936    1.0725585   -5.0373775   -4.3560532    -6.109936        15625   0.59415222   0.58856928   0.58327115  0.020769576 -0.015989881  -0.01648403            0           25            0           25            0           25 
  722000   0.71142023   0.60536616   -6.1044724    1.0670513   -5.0374211   -4.3367659   -6.1044724        15625   0.60142854   0.64284604   0.57182391 -0.024493911 -0.00090003168 -0.063671526            0           25            0           25            0           25 
  723000   0.70726169   0.64232842   -6.0982112    1.0608139   -5.0373972   -4.2939615   -6.0982112        15625   0.62046235   0.66936439   0.63715854  0.022233794 -0.015162137 0.0027876964            0           25            0           25            0           25 
  724000   0.71790193   0.57679281   -6.1142438    1.0767731   -5.0374706   -4.3698864   -6.1142438        15625   0.59557779   0.59379127   0.54100937 -0.028362941 -0.033489186 -0.020661455            0           25            0           25            0           25 
  725000   0.70679601   0.65576705   -6.0975036    1.0601155   -5.0373882   -4.2783985   -6.0975036        15625   0.67067033    0.6603276   0.63630323 -0.030169651  0.034069524 -0.066869469            0           25            0           25            0           25 
  726000   0.71127656   0.60561732   -6.1042576    1.0668358   -5.0374218   -4.3364758   -6.1042576        15625   0.68214245   0.60936231   0.52534721  0.046126382 -0.037009097 -0.031390504            0           25            0           25            0           25 
  727000   0.71032047   0.62104975   -6.1027963    1.0654018   -5.0373945   -4.3185869   -6.1027963        15625   0.63993644   0.62193953   0.60127328  0.035708976 -0.044029291 -0.028096867            0           25            0           25            0           25 
  728000   0.71826035   0.55730617   -6.1146941    1.0773107   -5.0373834   -4.3923531   -6.1146941        15625   0.55994153   0.52998842   0.58198856  0.021268635  0.044612541 0.0044977638            0           25            0           25            0           25 
  729000   0.70437765   0.66135812   -6.0938824    1.0564882   -5.0373942   -4.2719334   -6.0938824        15625   0.63926497   0.58784254   0.75696685 -0.018914393 -0.025396054  0.047455241            0           25            0           25            0           25 
  730000   0.70742276   0.62595558   -6.0984054    1.0610555   -5.0373499   -4.3128642   -6.0984054        15625   0.61853439   0.62598924    0.6333431 -0.047728824  0.030838332    0.0317399            0           25            0           25            0           25 
  731000   0.70677302   0.62968421   -6.0974743     1.060081   -5.0373933   -4.3085921   -6.0974743        15625   0.62548045    0.6587894   0.60478278   0.05416256 -0.041192754  0.019328252            0           25            0           25            0           25 
  732000   0.70706448   0.65381299   -6.0979234    1.0605182   -5.0374052   -4.2806772   -6.0979234        15625   0.69888183   0.69552165   0.56703548  0.060253963 -0.00033738135 -0.017368416            0           25            0           25            0           25 
  733000   0.70337604   0.67879024   -6.0923538    1.0549859   -5.0373679    -4.251731   -6.0923538        15625   0.66695759    0.6432455   0.72616764 -0.070011803 -0.015758584  0.040968171            0           25            0           25            0           25 
  734000   0.71021749   0.62610402   -6.1026201    1.0652473   -5.0373728   -4.3127154   -6.1026201        15625   0.67598174   0.59385423   0.60847608  0.028535259  0.029332681 0.0013013982            0           25            0           25            0           25 
  735000   0.70982552    0.6087652   -6.1020945    1.0646594   -5.0374351   -4.3328457   -6.1020945        15625   0.71303525   0.58257638   0.53068397 -0.045976919  0.019171582  0.030352034            0           25            0           25            0           25 
  736000    0.7127847   0.59904409   -6.1065127    1.0690979   -5.0374149   -4.3440768   -6.1065127        15625   0.63222564   0.55004671   0.61485994 -0.018600566 -0.042946534  0.023224432            0           25            0           25            0           25 
  737000   0.71311211    0.6015864   -6.1070045    1.0695889   -5.0374156    -4.341135   -6.1070045        15625   0.55533188   0.57303238   0.67639495  0.007107489  0.021087857 -0.055238044            0           25            0           25            0           25 
  738000   0.71293167   0.61233481   -6.1067565    1.0693183   -5.0374382   -4.3287174   -6.1067565        15625   0.60489068    0.5929097   0.63920403 -0.060260976  0.047429705  0.030143248            0           25            0           25            0           25 
  739000   0.70747849   0.64341163   -6.0985605    1.0611391   -5.0374213   -4.2927319   -6.0985605        15625   0.70487222   0.64097572   0.58438696 0.0055162048 0.0091629466 -0.028465876            0           25            0           25            0           25 
  740000   0.71145248   0.60615835   -6.1044801    1.0670997   -5.0373804   -4.3358082   -6.1044801        15625   0.64975719   0.55383612   0.61488173 -0.020221927  0.019697642  0.012165582            0           25            0           25            0           25 
  741000   0.71201466   0.60856241   -6.1053814    1.0679429   -5.0374385   -4.3330839   -6.1053814        15625   0.63784467   0.60094023   0.58690232 -0.027473514 0.0062230559  0.024045009            0           25            0           25            0           25 
  742000   0.70820422   0.61608869   -6.0996444    1.0622276   -5.0374167   -4.3243511   -6.0996444        15625   0.60714316   0.65682203   0.58430088 -0.042465546 -0.066958753 0.0037070434            0           25            0           25            0           25 
  743000   0.71065894   0.62386011    -6.103308    1.0659094   -5.0373986   -4.3153382    -6.103308        15625    0.5613966   0.67723853   0.63294522 -0.0055950607  0.036884157  0.018475273            0           25            0           25            0           25 
  744000   0.71142616   0.62263714    -6.104476    1.0670602   -5.0374158    -4.316771    -6.104476        15625   0.54877092   0.58814035   0.73100015 0.0056126597  0.013889595 -0.030241229            0           25            0           25            0           25 
  745000   0.71009653   0.63005816   -6.1024705    1.0650659   -5.0374046   -4.3081706   -6.1024705        15625   0.61987037   0.61803704   0.65226706 -0.031896393 -0.057521692 -0.046471159            0           25            0           25            0           25 
  746000   0.70554369   0.66593986   -6.0956322    1.0582371   -5.0373951   -4.2666314   -6.0956322        15625    0.7152398   0.62522767   0.65735212   0.02185825  0.035148573 0.0037562054            0           25            0           25            0           25 
  747000   0.71412935   0.59198385   -6.1085396    1.0711147   -5.0374249   -4.3522584   -6.1085396        15625   0.60436255   0.56191982   0.60966916 -0.066197218  0.049929248   -0.1211993            0           25            0           25            0           25 
  748000   0.70864731   0.64485209   -6.1003469    1.0628922   -5.0374547   -4.2910981   -6.1003469        15625   0.66670559   0.60925609   0.65859458 -0.038722837  0.020123262  0.032594158            0           25            0           25            0           25 
  749000   0.71758196   0.57633887   -6.1137349    1.0762932   -5.0374417   -4.3703828   -6.1137349        15625   0.57452809   0.59133599   0.56315252 -0.086043488  0.033357881 0.0059556553            0           25            0           25            0           25 
  750000   0.71116669   0.59383466   -6.1040658     1.066671   -5.0373948   -4.3500862   -6.1040658        15625   0.60407791   0.60581417   0.57161192 -0.0047259566  0.058865761 -0.0057344636            0           25            0           25            0           25 
Loop time of 4501.41 on 16 procs for 200000 steps with 13500 atoms

Pair  time (%) = 1022.06 (22.7053)
Neigh time (%) = 64.4658 (1.43212)
Comm  time (%) = 2314.93 (51.4269)
Outpt time (%) = 3.68065 (0.0817667)
Other time (%) = 1096.27 (24.3539)

Nlocal:    843.75 ave 855 max 831 min
Histogram: 1 1 1 3 1 2 2 2 1 2
Nghost:    6266.56 ave 6288 max 6246 min
Histogram: 3 2 0 1 2 3 0 1 1 3
Neighs:    190738 ave 199275 max 182041 min
Histogram: 4 2 1 1 0 0 0 2 1 5

Total # of neighbors = 3051811
Ave neighs/atom = 226.06
Neighbor list builds = 6721
Dangerous builds = 0
